ITEM: TIMESTEP
2000
ITEM: NUMBER OF ATOMS
9600
ITEM: BOX BOUNDS pp pp pp
2.8383631350233252e+00 5.0161636864970390e+01
2.8383631350233252e+00 5.0161636864970390e+01
2.8383631350233252e+00 5.0161636864970390e+01
ITEM: ATOMS id type xu yu zu mol
1969 1 6.055793 6.064628 9.093475 78
1966 1 5.864184 5.743523 10.573934 78
1963 1 7.028427 5.883136 11.548404 78
1972 1 6.339915 7.584502 8.906251 78
1968 8 4.978910 6.317262 10.861240 78
1971 8 6.935075 5.603471 8.668896 78
1967 8 5.512737 4.682370 10.675577 78
1970 8 5.101191 5.812654 8.569050 78
703 2 52.833556 53.571240 52.288204 28
704 3 54.074029 54.275691 52.268339 28
708 6 54.637412 54.812745 53.012406 28
1964 5 7.874816 5.229034 11.324345 78
1973 8 7.063883 7.931844 9.678363 78
1975 8 6.774698 7.775672 7.906952 78
1974 8 5.472095 8.143092 9.060876 78
1965 5 7.480563 6.875504 11.482356 78
1955 9 6.693319 5.657183 13.037428 78
8775 10 54.881619 9.973955 12.790840 482
705 9 54.613061 53.935955 51.094334 28
715 5 56.452527 54.816466 51.545190 28
8780 4 54.831444 11.289946 12.016046 482
706 6 52.123986 53.478840 53.057014 28
1957 7 5.000402 6.946162 13.195904 78
702 9 52.754540 52.772016 51.127298 28
8867 4 9.563525 10.182518 4.549743 495
1951 2 5.674467 6.194877 13.634864 78
7007 7 12.020697 50.318786 60.529104 280
1958 6 8.007533 4.058004 13.345804 78
8869 4 9.640626 9.215861 6.483223 495
1131 6 9.455139 4.936184 6.786396 45
9023 4 10.309706 3.531858 10.648739 517
713 1 55.948187 54.440998 50.618764 28
5750 8 17.376417 9.056599 51.204427 229
7332 7 9.365460 10.290112 9.590045 293
6733 6 24.853590 10.683754 52.469328 269
1338 1 25.668203 3.069773 6.827126 53
3045 8 4.297494 3.981584 7.416796 121
709 1 51.798998 51.716717 51.053397 28
7448 8 51.261339 55.982135 3.460017 297
1135 5 11.145658 5.696143 9.762287 45
8872 4 11.211902 8.873625 4.966207 495
4362 5 10.877436 16.342572 10.698638 174
8781 4 53.959088 10.483116 13.954087 482
6742 8 22.062070 13.929809 50.204019 269
8779 4 53.563700 9.479236 12.012951 482
711 5 51.036686 51.848311 51.793804 28
2023 8 19.299892 3.478338 12.863623 80
9024 4 8.745245 3.471370 9.270913 517
1954 3 7.280702 4.706763 13.811108 78
8866 10 10.624526 10.140151 5.693492 495
7005 9 13.846619 50.836336 61.656618 280
6739 5 23.928751 11.482831 50.232775 269
8778 4 54.912338 8.595595 13.629165 482
12 5 7.235686 18.261941 53.133387 0
2060 5 16.040606 7.491003 14.058047 82
7150 8 15.449064 2.942667 10.672773 285
5607 7 21.524683 17.807726 8.629333 224
8777 4 55.860318 9.295314 11.699246 482
7349 8 5.803625 9.905950 5.225699 293
7719 4 17.517470 50.199936 5.871455 331
8939 4 23.639005 17.009797 52.241456 505
8564 4 25.399810 12.316404 10.297245 451
7833 4 3.241467 4.076072 12.403402 347
1136 5 9.543998 5.510362 9.025277 45
1128 2 10.436917 5.359564 6.655969 45
1134 1 10.435802 6.113599 9.062651 45
1137 5 10.150877 7.130215 9.366095 45
1133 6 11.395781 4.717771 4.674508 45
7024 8 9.991026 54.038025 61.489809 280
3044 1 4.707792 3.018371 7.132363 121
7022 1 10.674322 54.801712 61.685465 280
7149 8 15.639406 4.614938 10.002311 285
7018 8 11.432401 52.291015 61.647341 280
7142 8 14.799112 3.929539 7.835757 285
7148 8 14.761734 4.234921 11.488162 285
7025 8 10.978277 55.157384 60.653709 280
1127 9 10.992449 6.011394 7.718718 45
1129 3 11.362437 5.265682 5.647459 45
1141 1 14.816090 6.088335 5.620970 45
7145 8 12.945603 3.092439 10.167452 285
1130 9 12.398462 6.002694 6.086207 45
1126 2 12.172241 6.583620 7.292837 45
1138 1 13.455571 6.383852 5.108952 45
7669 10 14.450501 8.471456 10.147303 324
1132 7 12.627673 7.354417 7.791391 45
2056 6 16.141490 9.401102 13.042740 82
2053 2 15.569757 9.769071 13.907609 82
7146 8 13.115026 4.745288 9.726838 285
7673 4 15.991355 8.539688 10.547018 324
7675 4 14.012495 8.064158 11.629388 324
7671 4 14.879243 9.029739 8.754094 324
7674 4 14.750119 7.008004 9.664931 324
7144 1 13.661592 3.809680 9.713593 285
1140 5 13.371717 5.868341 4.104669 45
7670 4 12.875547 8.589210 9.793301 324
2015 5 18.173602 4.616583 8.418549 80
1143 8 14.854913 5.055569 6.001464 45
7672 4 14.462538 10.051591 10.456422 324
1139 5 13.364835 7.470346 4.940653 45
7147 1 14.997418 3.876618 10.485378 285
7016 1 12.332666 52.907850 61.585061 280
1148 8 17.370054 5.858637 6.061515 45
7141 1 13.926522 3.366308 8.242738 285
7143 8 13.032819 3.655463 7.657951 285
1147 1 17.231433 6.363607 5.087354 45
1144 1 15.896988 6.192602 4.423218 45
5746 8 16.497952 9.612734 53.586925 229
5744 1 16.057228 10.098343 52.689088 229
5747 1 17.059772 10.128744 51.454230 229
1142 8 14.986370 6.787480 6.467189 45
1146 8 15.823577 5.342111 3.809169 45
9031 4 9.003408 3.520559 51.943062 518
1149 8 17.346787 7.459279 5.297392 45
7348 8 5.246210 8.570183 6.524449 293
2871 8 13.173278 18.604823 12.539965 114
8870 4 11.636529 10.055192 6.836952 495
5748 8 17.820260 10.789605 51.669757 229
8871 4 11.656893 11.029118 4.896674 495
1345 8 22.232966 2.926466 5.852889 53
5745 8 15.062388 9.610388 52.411482 229
8623 4 18.341821 8.195729 12.832453 460
6568 8 23.807998 16.498217 14.222180 262
5367 8 16.898515 18.348165 2.957800 214
7017 8 12.606228 53.151073 60.573586 280
6745 8 21.085001 11.857588 51.310671 269
2054 3 14.658851 10.805160 14.032408 82
2058 6 14.282258 11.413684 13.243339 82
7337 5 12.014133 10.689667 9.894199 293
2097 1 2.964454 17.797285 12.944278 83
7724 4 19.459416 51.231765 5.416287 331
8562 4 26.366479 10.439003 9.647095 451
946 8 26.013727 5.628892 12.655432 37
2013 1 19.138162 4.927005 8.807606 80
2014 5 20.040056 4.303795 8.447283 80
2007 7 17.981049 7.331320 9.625390 80
3048 8 6.633485 3.374614 7.890072 121
3046 8 4.297746 2.865269 6.134835 121
5609 1 20.482730 18.392258 6.056432 224
8622 4 19.644270 8.369508 14.620345 460
2001 2 18.809081 7.399019 8.993958 80
2018 8 18.226785 5.387992 10.758208 80
2012 5 19.141083 10.681807 7.783199 80
2019 1 18.774644 3.257433 10.679492 80
2008 6 20.720720 5.982210 6.801042 80
2005 9 19.338413 6.319534 8.383973 80
2010 5 18.837852 10.225604 9.523986 80
2009 1 18.665621 9.906307 8.483615 80
2011 5 17.532868 9.836862 8.453343 80
8626 4 19.874634 6.655422 13.213639 460
2025 8 17.568191 3.691765 12.417683 80
2002 9 19.127447 8.515642 8.222691 80
950 8 25.094448 3.933782 11.319525 37
2016 1 18.992764 4.737352 10.349396 80
949 8 25.168061 3.193444 12.873993 37
1341 1 24.127982 3.360084 6.880401 53
8627 4 21.502151 8.198313 13.221197 460
8625 4 20.092557 8.079765 11.435564 460
8576 4 24.009776 6.815005 51.307726 453
8577 4 24.855094 8.374391 52.478874 453
939 5 24.459012 7.968993 13.152203 37
942 8 23.178645 6.268747 12.261190 37
8575 4 21.929265 7.236987 52.138911 453
2006 6 20.697865 8.785765 6.691959 80
2004 3 20.175850 6.723570 7.393526 80
2003 2 20.095179 8.098656 7.306919 80
944 1 25.024542 5.385472 12.757743 37
941 1 24.164091 6.347188 11.955286 37
8621 10 19.913293 8.246292 13.019712 460
8572 10 23.416230 7.810589 52.337479 453
938 1 24.730039 7.733898 12.113049 37
943 8 24.086399 6.060486 10.869090 37
940 5 25.826356 7.873993 11.966570 37
8573 4 23.001052 8.697997 53.554682 453
8574 4 23.607907 6.697463 53.452784 453
1343 8 23.983949 4.419217 6.704714 53
2017 8 19.830090 5.062992 10.850981 80
8624 4 19.896571 9.853085 12.972869 460
930 9 24.141359 8.679573 11.142081 37
948 8 23.634722 3.718268 12.417395 37
947 1 24.670273 3.948977 12.303371 37
945 8 24.757515 5.352815 13.759051 37
933 6 24.631552 7.757928 9.342679 37
8578 4 22.974602 8.932783 51.248787 453
1342 8 23.728298 3.295087 7.936385 53
932 7 23.138702 9.989848 12.589695 37
8937 4 23.694263 15.872342 50.435325 505
1490 5 26.293270 5.623078 3.870062 59
5749 8 16.583452 10.411734 50.557848 229
6566 1 23.647915 15.467836 14.464962 262
8456 4 24.576359 11.012736 14.285812 436
5615 5 21.012864 18.536876 11.092819 224
1349 8 24.179889 4.064194 4.361220 53
3049 8 6.373298 4.018664 6.325643 121
123 8 51.246978 56.849531 60.193757 4
8776 4 56.143569 10.479973 13.605369 482
5610 5 21.587597 18.320167 6.034394 224
7345 8 4.860913 11.735385 6.813507 293
7339 5 6.380695 12.623973 8.712801 293
7326 2 9.442373 11.367772 9.332689 293
5601 2 20.613414 18.540310 8.580489 224
3047 1 6.161560 3.158415 6.923488 121
4361 5 9.334966 17.198671 10.403426 174
7347 1 5.159362 9.672860 6.119007 293
7342 8 7.209754 11.618316 6.549303 293
7350 8 4.193416 9.864794 5.691818 293
4375 8 3.041416 12.373968 10.564770 174
8383 10 4.830787 13.524966 50.529329 426
712 5 52.223794 50.668585 51.139686 28
8385 4 5.063101 14.538818 51.817352 426
1 2 8.188865 16.219498 50.775806 0
131 6 50.264673 16.168218 4.554328 5
9502 4 3.867756 17.079765 8.139987 585
7344 1 5.306162 10.777112 7.125591 293
7343 8 7.419950 10.104896 7.476405 293
9497 4 6.073278 17.482302 8.293335 585
8388 4 3.626701 12.826363 51.388727 426
7346 8 4.745823 10.596287 8.088501 293
7341 1 6.857477 11.012001 7.387719 293
4370 8 3.422424 13.810965 13.300642 174
4364 5 5.861702 14.531833 13.639497 174
9498 4 6.282328 15.557714 9.176638 585
4357 7 6.944726 16.201090 11.399798 174
9500 4 4.174806 15.207145 9.208040 585
9501 4 5.227751 15.593029 7.297235 585
6 6 7.888251 15.847653 53.964501 0
7340 5 6.934890 11.143713 9.631103 293
9496 10 5.104297 16.393510 8.718128 585
7338 1 7.092222 11.785208 8.712229 293
7330 9 8.495243 12.169403 8.835886 293
4352 9 9.084465 15.718267 11.761717 174
4351 2 7.716671 15.661517 11.891261 174
4363 1 6.209794 13.900764 12.987923 174
4355 9 7.448661 14.491786 12.512980 174
3 2 8.045289 15.637935 52.922888 0
4 3 8.524880 14.516884 52.237278 0
4354 3 8.579587 13.839626 12.848301 174
4353 2 9.600671 14.563749 12.346343 174
7333 6 8.377153 14.253501 7.975057 293
7329 3 8.997309 13.424236 8.506507 293
4366 1 5.111981 13.832604 11.891885 174
4368 8 5.502253 13.301065 11.029450 174
4369 1 3.893590 13.172303 12.492779 174
4371 8 4.091529 12.178466 12.893594 174
8 6 8.778746 13.516161 52.588191 0
2 9 7.785887 16.605677 51.995528 0
4365 5 6.310002 12.970644 13.594407 174
4367 8 4.785114 14.812978 11.594921 174
7328 2 10.304121 13.425189 9.002065 293
7327 9 10.541806 12.137674 9.541499 293
9499 4 4.903184 17.183295 10.115386 585
4358 6 8.641398 12.834181 13.274342 174
8384 4 5.751241 12.381312 51.197587 426
5 9 8.577220 14.934126 50.927965 0
9 1 7.002063 17.834559 52.168499 0
4356 6 10.668079 14.390176 12.355541 174
4372 1 2.785131 12.986104 11.369543 174
10 5 5.942048 17.461860 52.152409 0
701 2 53.857631 53.018412 50.349888 28
8868 4 9.935506 11.403597 6.358532 495
1347 1 23.771049 2.994133 4.343842 53
4360 5 10.261156 17.480591 11.955539 174
6728 2 24.703853 12.384698 53.871629 269
4359 1 9.992578 16.736508 11.219830 174
1150 8 18.129657 6.146492 4.450237 45
7004 3 15.137034 50.434554 61.642491 280
2022 1 18.445590 3.135846 12.205774 80
7335 5 11.832705 11.862792 11.161290 293
7334 1 11.837442 11.751225 10.064827 293
8378 4 18.089479 13.425346 54.885565 425
6555 9 25.961493 14.623299 14.132026 262
5366 1 17.189487 17.293691 3.078774 214
19 1 11.598062 14.249498 50.377648 0
20 8 12.414065 13.537765 50.371014 0
7336 5 12.629705 12.356708 9.644073 293
6729 3 24.550216 11.690856 52.709353 269
7331 6 11.025848 14.182827 9.087161 293
7870 4 11.281586 17.462431 7.883238 352
2100 8 4.076613 17.922650 12.665944 83
21 8 11.429065 14.545451 51.398483 0
7871 4 11.170077 17.797280 5.494139 352
5371 8 16.664795 15.541827 4.144873 214
5375 8 14.607410 16.860982 3.465247 214
5374 8 14.552038 16.359270 5.239100 214
5739 5 13.928491 10.965352 54.057457 229
5740 5 15.209627 11.098931 55.222846 229
5369 1 16.563517 16.600200 4.242714 214
5742 8 15.096498 11.971127 52.140769 229
5741 1 15.618209 11.528630 53.043402 229
5743 8 16.493449 12.164634 53.217120 229
5738 1 14.762400 11.603772 54.333388 229
7996 4 12.617945 15.849527 12.949967 370
7995 4 14.578663 16.040701 11.749931 370
7992 4 12.819362 13.751993 13.047507 370
7993 4 14.653210 14.878974 13.659819 370
5733 6 12.455424 12.823434 53.584985 229
5737 5 13.773069 16.877135 56.147769 229
5734 1 14.648441 16.261220 55.886377 229
5732 7 15.970718 13.628259 55.846140 229
5727 9 14.151876 14.973136 55.356379 229
5728 2 13.034682 14.721376 54.661475 229
5726 2 14.985447 13.881942 55.385899 229
5729 3 13.109893 13.420078 54.210054 229
5730 9 14.290234 12.991400 54.664714 229
7991 10 13.673591 14.868960 12.349997 370
5731 6 12.357681 15.532297 54.396700 229
7997 4 12.735055 14.731259 11.052934 370
5735 5 15.190324 16.761124 55.104086 229
5736 5 15.395846 16.207412 56.623055 229
7219 1 17.735255 12.083794 12.166717 288
7994 4 14.516381 13.666726 11.660133 370
7221 8 17.639847 11.020320 12.155704 288
5372 1 15.090160 16.995491 4.451867 214
7223 8 17.609052 12.421709 9.980578 288
7222 1 18.270309 12.501628 10.845950 288
7224 8 19.284735 12.067363 10.677693 288
17 8 10.198534 12.653851 50.844781 0
7220 8 16.758648 12.443869 12.214803 288
7216 1 18.508470 12.653059 13.345929 288
8380 4 20.356208 13.663203 55.134238 425
7218 8 19.518361 12.196117 13.350784 288
6744 1 21.167854 11.911702 50.235112 269
6565 5 24.354154 14.792587 12.676409 262
5612 5 20.130388 17.394724 5.905159 224
5620 8 18.759561 18.093596 13.768358 224
7225 8 18.482322 13.619620 10.958448 288
7217 8 18.704234 13.746862 13.293578 288
5865 5 25.988309 63.609430 7.284367 234
5373 8 14.990721 18.099828 4.707823 214
1340 5 26.209000 3.842971 7.379211 53
7532 4 24.666466 17.774676 9.057287 304
5364 5 19.029650 17.993075 3.664157 214
6730 9 23.885844 12.612542 51.934900 269
7529 10 24.461100 18.231410 10.571784 304
7530 4 25.741844 17.358808 10.969220 304
937 5 21.396291 11.450425 9.833735 37
934 1 22.265468 11.595953 10.509038 37
6737 5 25.052646 14.506438 55.467908 269
5363 1 18.648734 17.137330 3.078304 214
8377 4 18.270332 14.226516 52.707350 425
8381 4 18.997466 15.485279 54.508426 425
6731 6 25.246606 12.092648 54.753168 269
929 3 24.207696 8.610658 9.826715 37
926 2 23.433442 9.745849 11.579730 37
927 9 23.043482 10.392355 10.436364 37
1489 5 26.599457 6.969256 2.763629 59
5365 5 18.886800 16.284114 3.563124 214
7535 4 23.471849 16.954547 10.868922 304
6736 5 23.538703 15.414255 54.758722 269
931 6 23.215280 9.958725 8.318437 37
8379 4 19.565995 12.556773 53.405751 425
5370 8 17.155463 16.719807 5.206228 214
6726 2 23.475079 13.666911 52.620494 269
7866 4 12.894899 18.600928 6.756281 352
8936 10 23.843679 17.400756 50.833055 505
8938 4 22.275985 17.609715 50.716321 505
5621 8 20.279253 17.573991 12.947649 224
1339 5 26.067602 3.051858 5.812301 53
6735 5 23.387757 14.011850 55.782247 269
4248 8 20.338856 52.086007 50.270645 169
6558 6 26.349361 16.752663 13.944851 262
935 5 22.849130 12.346671 10.073640 37
936 5 21.908126 11.827556 11.556105 37
1145 8 15.708354 7.131761 3.851786 45
6571 8 21.914302 15.141111 13.195358 262
6732 7 23.004060 14.533823 52.150953 269
6569 1 22.125046 15.020938 14.231253 262
8942 4 25.393898 17.049324 51.095615 505
8382 4 20.398635 14.552073 53.001936 425
928 2 23.510732 9.682679 9.338656 37
8376 10 19.286374 13.982233 53.932516 425
6564 5 24.214075 13.574800 13.855756 262
6570 8 21.990245 14.005782 14.573576 262
5625 8 17.341425 17.357056 11.885843 224
6727 9 24.032280 13.559061 53.904395 269
6738 1 23.690693 12.467177 50.475157 269
5623 8 18.271578 16.059009 12.503107 224
5622 1 18.376281 16.975347 11.973685 224
5624 8 18.884766 16.892194 10.999563 224
5619 1 19.243743 17.939349 12.798967 224
6563 1 24.578778 14.574655 13.748646 262
6734 1 24.005008 14.475759 55.024175 269
7215 5 17.387123 11.390819 14.788366 288
6750 8 18.893690 12.135323 50.439924 269
714 5 56.575491 53.678339 50.208719 28
7956 10 5.258615 4.409847 20.220865 365
7962 4 6.471640 3.287128 20.232089 365
8530 10 8.843086 9.350328 24.862564 447
7957 4 6.119733 5.330977 19.181174 365
6166 1 51.896844 9.045746 22.837833 246
2922 1 8.137403 54.201637 17.224468 116
4926 2 6.587387 3.695190 24.046706 197
7959 4 4.381325 3.606951 19.122125 365
2908 6 8.909821 53.233384 21.949941 116
2925 8 7.134218 54.289320 17.594485 116
6169 1 51.705509 7.997675 23.954881 246
6163 1 53.044733 8.597331 21.914729 246
7960 4 4.470435 3.498941 21.307121 365
6151 2 53.050986 9.419390 19.581409 246
6157 7 52.509233 8.526360 19.169812 246
2917 8 8.339348 53.279933 19.849562 116
2858 6 15.654568 17.249092 15.945388 114
6168 8 50.964351 9.135977 22.355200 246
7958 4 4.047957 5.451385 20.106876 365
1961 5 3.656598 5.398243 15.597929 78
2914 5 9.647382 51.208148 19.779492 116
4939 5 4.659070 4.982884 25.126816 197
4930 9 6.693698 4.498344 25.140441 197
1959 1 4.623591 5.928497 15.904018 78
6165 5 52.657203 7.576701 21.483351 246
1962 5 4.304995 7.036490 16.032645 78
6170 8 52.607304 7.827748 24.557911 246
1960 5 5.010447 5.448090 16.824830 78
2919 1 8.938860 53.067051 17.799739 116
2923 8 7.977353 54.050796 16.184140 116
2920 8 8.235366 52.198079 17.761337 116
4929 3 7.937223 4.692596 25.626197 197
1956 6 6.804707 4.086703 15.851129 78
8459 4 22.296760 11.199655 14.919689 436
2916 1 9.252262 53.292315 19.276814 116
2904 3 9.911543 52.905638 22.153452 116
1953 2 6.583312 4.714439 14.993947 78
4928 2 8.736780 3.950128 24.758455 197
7961 4 5.929014 5.176761 21.396715 365
2913 1 10.183492 52.157244 19.875437 116
4932 7 5.704005 3.345514 23.497974 197
2924 8 8.690862 55.134591 17.304701 116
2921 8 9.864000 52.911919 17.274085 116
2918 8 9.803044 54.226499 19.456885 116
8535 4 8.569912 9.328822 23.316208 447
8536 4 7.269843 9.592882 25.192147 447
8532 4 10.463652 9.198022 24.584258 447
3921 8 25.796424 18.709536 24.019939 156
4938 1 5.535761 5.205699 25.800628 197
8534 4 8.744027 7.830025 25.018766 447
8096 10 26.329523 52.628535 17.238094 385
6164 5 53.933448 8.415982 22.461778 246
6155 9 53.261869 9.668883 20.908822 246
2055 9 14.168685 10.687244 15.264786 82
4940 5 5.738146 6.223658 25.893471 197
6160 5 51.817322 10.851574 17.507340 246
2283 6 5.062387 18.494980 22.018798 91
6162 5 53.307965 11.824220 17.240321 246
6152 9 53.233346 10.622566 18.933161 246
6159 1 52.891414 10.888835 17.592650 246
2915 5 10.947448 51.931018 19.232893 116
2905 9 10.680760 52.337999 21.212583 116
548 8 57.862582 9.662628 20.602715 21
2903 2 10.739895 53.102191 23.224862 116
2906 6 10.540408 53.697141 24.108193 116
7209 1 19.552879 14.171185 18.970714 288
4931 6 9.737268 3.741501 24.737010 197
9203 4 10.554426 50.538609 16.011585 543
8531 4 9.119365 11.018391 24.691360 447
7214 5 16.991308 13.133051 14.712466 288
3557 7 18.481861 50.914680 22.060083 142
6787 5 22.596971 4.906158 16.108993 271
2855 9 13.679177 18.017264 15.548506 114
7008 6 16.001620 50.980647 61.999863 280
546 8 59.563486 11.138096 19.615641 21
3559 1 15.763380 50.866144 20.901087 142
7014 5 14.356018 52.641127 62.499202 280
3833 6 13.065057 8.126777 25.503759 153
2901 2 12.007533 52.252158 21.584197 116
2902 9 12.054830 52.649206 22.891764 116
7596 4 14.143753 8.743874 19.433130 313
7597 4 12.630458 7.731056 18.118866 313
7598 4 14.708111 7.164554 18.091100 313
7593 4 13.198298 5.753936 18.947486 313
7594 4 12.645298 7.445462 20.423090 313
7595 4 14.694529 6.632442 20.266678 313
7592 10 13.640923 7.252053 19.246978 313
2909 1 13.225366 52.671292 23.725713 116
3827 9 15.719420 8.870739 23.622810 153
3826 2 16.269798 8.687896 24.883485 153
3831 6 13.760049 8.920153 22.823502 153
3828 2 14.329846 8.748974 23.733803 153
3829 3 13.986547 8.338528 24.991604 153
3832 7 17.235788 8.469855 25.071686 153
3830 9 15.235350 8.345552 25.642628 153
3834 1 16.494633 8.816989 22.354904 153
2057 7 14.673383 9.452461 17.045006 82
2907 7 12.787405 51.967785 20.943407 116
2912 5 13.529897 51.643878 23.894616 116
2911 5 14.047383 53.244206 23.315753 116
2910 5 12.913031 53.096868 24.717226 116
6795 8 17.177446 8.666485 17.640806 271
6799 8 16.197444 10.172280 19.416772 271
6792 8 17.226057 7.775827 20.044507 271
9183 4 18.054361 52.957880 23.925164 540
3837 5 17.252871 9.561070 22.423977 153
3835 5 15.966846 8.909399 21.459435 153
3836 5 17.032015 7.881810 22.299622 153
2051 2 14.730111 9.722452 15.994855 82
6794 1 17.836235 9.161245 18.363392 271
2068 8 11.709707 9.960129 16.327375 82
7015 5 12.926351 51.823408 63.214990 280
6790 5 18.193528 6.382673 18.366189 271
547 1 58.442950 10.231515 21.344195 21
6797 1 17.145316 10.393920 18.920428 271
550 8 59.283309 9.671453 21.703921 21
9184 4 19.283839 52.586852 25.869840 540
6791 1 18.128618 8.129884 19.536594 271
3561 5 16.098963 51.556951 20.144313 142
6955 9 22.641604 3.065940 19.448575 278
7888 4 26.126495 9.460431 23.954663 355
3562 5 15.558601 51.258794 21.944184 142
8683 4 17.536253 4.292908 16.529839 468
6796 8 18.783493 9.459497 17.843404 271
9182 4 19.904739 51.452844 24.024603 540
5774 8 23.219030 3.138416 15.089415 230
3560 5 14.888966 50.301105 20.496227 142
7013 1 13.424962 52.072594 62.320123 280
549 8 57.781013 10.485778 22.173914 21
6800 8 16.823378 11.050412 18.111300 271
7023 8 10.246309 55.660260 62.296436 280
2059 1 16.044263 7.692871 15.113623 82
4645 8 3.838843 11.586045 25.840854 185
8677 10 18.002097 2.968022 17.331324 468
2403 2 19.195483 15.588301 22.031295 96
3774 8 23.097341 15.495731 19.014869 150
4909 1 23.800003 51.584525 25.809150 196
6948 8 50.333990 14.549843 16.230380 277
9185 4 19.362326 54.548034 24.711545 540
6172 1 50.553056 8.316133 24.857183 246
2064 5 13.072612 12.481559 15.305449 82
8678 4 18.454778 3.890406 18.568797 468
6575 8 21.297654 16.887664 14.461125 262
9181 10 19.596298 53.013497 24.357538 540
9186 4 19.827632 53.411952 22.808725 540
9187 4 21.157642 53.131050 24.545975 540
6782 7 19.887797 5.522477 16.891122 271
6793 8 18.750382 8.600699 20.263113 271
6789 5 18.960293 6.108044 19.980678 271
6788 1 18.836178 6.834091 19.129000 271
6781 6 22.965850 8.280788 17.537218 271
6974 8 24.940706 6.997204 21.410345 278
6975 8 23.671269 8.181573 21.401780 278
6973 8 23.807163 7.173296 20.050052 278
6963 1 22.521818 4.446464 19.966088 278
6970 8 23.259422 6.231723 22.911359 278
6972 1 23.893546 7.212247 21.117693 278
6971 8 21.955035 6.444573 21.697884 278
6969 1 23.037569 6.181903 21.839265 278
6780 9 20.124962 7.042778 18.475169 271
6779 3 21.148669 7.878273 18.819530 271
6783 6 21.161683 8.498348 19.671867 271
6966 1 23.290064 4.736999 21.260996 278
1659 1 22.607731 8.602069 24.370020 66
6778 2 22.060727 7.734991 17.796163 271
6964 5 21.459809 4.572526 19.969092 278
6965 5 22.937210 5.063550 19.270108 278
1660 5 23.238398 9.277823 23.729033 66
6776 2 20.382962 6.355715 17.381501 271
1661 5 21.615977 8.590098 23.924468 66
6777 9 21.700062 6.583993 17.072939 271
6968 8 24.403379 4.694123 21.110170 278
6967 8 22.844725 3.998270 21.944099 278
8729 4 20.845721 9.521949 21.614338 475
1662 5 22.913918 7.579124 24.307863 66
1652 9 22.568103 9.139611 25.711609 66
8100 4 25.403572 53.007688 18.536498 385
8102 4 25.092164 51.907269 16.415993 385
6784 1 22.427281 6.009030 15.932536 271
4927 9 7.877032 3.370632 23.856468 197
8455 4 25.062861 10.710082 16.497824 436
4902 9 25.227755 51.147378 26.042598 196
6786 5 21.903495 6.260559 15.005441 271
6785 5 23.453571 6.436536 16.077341 271
4911 5 23.190806 51.068428 26.529077 196
8099 4 26.093955 54.104360 16.631255 385
7268 8 26.058683 12.276913 26.472660 290
8682 4 19.485261 3.119091 16.749124 468
6573 8 21.372713 16.043854 16.036264 262
4912 5 23.411115 51.441692 24.828002 196
3765 5 24.507071 13.426911 20.924665 150
5589 5 14.963739 17.798317 25.139150 223
2860 5 11.407493 14.566423 15.323145 114
6949 8 50.639391 13.110152 15.315067 277
1952 9 5.642293 5.671154 14.907856 78
2062 5 17.106766 7.716133 15.465447 82
7275 8 23.938434 12.941807 23.679512 290
4933 6 8.214725 5.150309 26.542696 197
6167 8 52.127448 10.027068 23.242566 246
6161 5 53.420263 10.144759 17.017336 246
4901 2 26.269385 51.981495 26.101596 196
7657 4 5.722666 16.450223 16.916429 322
322 1 50.445808 14.248869 20.853874 12
3925 8 24.802666 17.126240 22.432239 156
6153 2 53.750054 11.508882 19.831398 246
6154 3 53.787116 10.935420 21.084222 246
2073 8 8.673684 11.398467 17.421304 82
6158 6 54.140981 11.202395 22.071251 246
6156 6 54.078332 12.483518 19.574136 246
8916 4 6.721796 14.549373 23.311935 502
2279 3 4.200589 18.309102 21.305986 91
2278 2 4.190186 17.855993 19.983591 91
8918 4 5.591644 16.245868 23.720561 502
8921 4 4.578806 14.311482 24.126513 502
7659 4 7.412780 15.525832 15.782072 322
7661 4 7.678596 14.173374 17.482523 322
7658 4 7.715659 16.407798 17.827056 322
527 9 56.523065 16.624928 22.085988 21
528 2 56.021379 16.382040 20.839737 21
7655 10 6.745932 15.329404 17.161547 322
7660 4 5.752965 14.214268 16.587099 322
526 2 57.027389 15.501200 22.634005 21
8915 10 5.987212 15.024676 24.605808 502
7656 4 6.150360 15.002845 18.619737 322
532 7 57.238972 15.396819 23.719594 21
530 9 57.004812 14.589954 21.628201 21
529 3 56.411663 15.101806 20.571707 21
534 1 56.132138 17.704089 22.977173 21
8920 4 6.347156 13.705209 25.363799 502
2281 6 4.968590 17.511040 19.357488 91
8917 4 7.276010 15.766425 24.971463 502
533 6 56.406650 14.623569 19.628713 21
531 6 55.437990 17.109254 20.283569 21
8919 4 5.303628 15.633657 25.906742 502
2072 1 9.472041 10.796855 17.092096 82
542 8 57.192789 12.402353 19.834452 21
2074 8 9.818015 10.129773 17.824038 82
535 5 56.772561 17.710359 23.870841 21
536 5 55.130412 17.537204 23.322723 21
539 5 56.794221 12.636532 22.265453 21
2862 5 11.451748 14.700518 17.066099 114
7213 1 17.816697 12.399844 14.737388 288
4907 7 26.367901 53.085289 25.915249 196
6567 8 23.746687 15.355747 15.536777 262
3757 7 24.734919 11.525305 19.476183 150
2065 5 13.395513 11.811389 16.919189 82
2287 5 3.200470 16.918825 17.739616 91
5594 1 17.612566 17.175481 26.137215 223
2854 3 14.585813 17.121321 15.903950 114
543 8 58.689220 13.412983 19.841320 21
541 1 58.079595 12.717718 20.402800 21
2859 1 11.367279 15.268853 16.128125 114
538 1 57.528783 13.298592 21.706582 21
321 8 50.477327 12.832104 22.432584 12
544 1 59.004773 11.473256 20.583749 21
5588 1 15.833864 17.709273 24.478832 223
5583 6 17.185288 18.224635 22.157987 223
545 8 59.698446 11.971162 21.199908 21
540 5 58.408184 13.349643 22.389594 21
2070 8 10.314788 12.541657 16.318069 82
2063 1 13.134355 11.544445 15.863182 82
2071 8 11.210025 11.871304 17.725583 82
5580 9 15.370965 17.540998 23.096961 223
5579 3 16.082626 17.823296 21.993513 223
9256 4 10.913300 17.858993 18.794047 550
2066 1 11.689293 10.920640 15.915104 82
2069 1 10.702870 11.655803 16.811945 82
7770 4 11.797527 16.263587 25.290260 338
2420 8 14.908949 11.440181 22.773908 96
5592 8 16.499709 15.635880 24.995879 223
2425 8 12.976129 12.525601 24.824746 96
2852 9 12.487765 16.253482 15.946554 114
5581 6 15.468648 17.387053 19.823714 223
2423 8 14.139844 11.458757 25.450120 96
2853 2 13.858256 15.954014 16.147319 114
5582 7 13.505451 16.479002 23.556662 223
5591 1 16.905087 16.683915 24.863745 223
2424 8 13.017816 10.938281 24.173646 96
5587 5 13.109371 16.292710 19.679785 223
2421 8 14.170628 13.200143 22.841358 96
8172 4 15.295612 13.064177 17.421294 395
2422 1 13.661735 11.758893 24.521703 96
5585 5 12.073944 17.192889 20.813073 223
8170 4 16.466485 13.314764 19.332043 395
8169 4 14.425411 12.075754 19.178101 395
2419 1 14.596153 12.288606 23.371367 96
8167 4 13.439676 13.932450 18.449313 395
8168 4 14.632283 13.920312 20.370427 395
8171 4 15.294262 15.089172 18.632771 395
8166 10 14.935277 13.555891 18.889093 395
5584 1 12.890854 16.423397 20.757757 223
5577 9 14.084134 16.913458 21.486580 223
2416 1 15.942762 12.788877 23.905282 96
2418 8 15.792906 13.848408 24.236759 96
2417 8 16.345388 12.051528 24.654681 96
5586 5 12.466480 15.481060 21.139684 223
5576 2 14.211411 16.911631 22.856992 223
2415 5 16.423052 12.897580 21.803536 96
5578 2 15.296397 17.486701 20.947602 223
2413 1 16.963631 12.842370 22.748883 96
2408 6 17.250966 15.082667 21.000188 96
2856 6 14.118345 14.988332 16.522031 114
5593 8 17.650115 16.662497 24.124421 223
2414 5 17.532731 11.882219 22.786586 96
7207 7 17.434989 14.015357 17.146747 288
6798 8 17.725645 10.912631 19.648381 271
2404 3 17.993070 14.986216 21.744945 96
2405 9 17.877971 13.979384 22.774216 96
8252 4 18.552324 16.869320 17.077046 407
7773 4 13.663458 15.209815 25.656447 338
3761 5 25.565347 9.258671 18.708137 150
8253 4 17.097492 18.484389 17.829808 407
2067 8 11.131071 10.894023 14.924299 82
7019 1 11.990694 54.208425 62.225098 280
2861 5 10.391204 15.823544 16.108262 114
7201 2 18.287203 13.442764 16.933517 288
8251 4 18.230051 17.108380 19.331619 407
7212 5 18.712218 14.853109 19.162027 288
7205 9 18.539909 12.552294 15.976276 288
2401 2 18.827435 14.001973 23.623620 96
8250 10 18.648907 18.058712 18.128348 407
2407 7 19.096189 13.336252 24.382875 96
6174 8 50.895321 8.987606 25.668390 246
4632 7 7.353344 11.712331 26.352942 185
2851 2 12.364032 17.542037 15.601450 114
4910 5 23.744608 52.691461 26.086427 196
3919 1 24.775135 18.287280 24.248208 156
2857 7 11.453066 18.015548 15.475737 114
7269 1 25.699494 13.537412 24.760696 290
7203 2 20.226763 12.415547 17.360737 288
3763 1 25.543270 13.743621 20.810736 150
8458 4 23.093112 10.676685 17.005305 436
1656 6 20.788984 10.347794 25.562831 66
1653 2 21.682269 10.116531 26.155797 66
7208 6 20.016541 11.044648 15.613435 288
3771 8 25.402355 15.217940 17.670396 150
3773 8 23.072524 14.369879 17.556399 150
6958 6 24.495865 3.530105 18.569215 278
324 8 51.170653 13.819773 20.169720 12
3922 1 24.100963 17.703409 22.986671 156
3920 8 24.890440 17.491981 24.912733 156
2402 9 19.704481 14.977412 23.164774 96
7204 3 19.635856 11.808346 16.272974 288
3924 8 23.336403 17.110159 23.239935 156
8728 4 21.566116 11.343549 22.981714 475
3751 2 25.821396 11.561443 19.815908 150
3755 9 26.318236 12.484589 20.605900 150
7210 5 20.498683 14.746803 18.994811 288
7272 1 24.810134 12.439594 24.019173 290
3772 1 23.519512 14.577440 18.616545 150
7206 6 21.151768 12.147714 17.833304 288
3766 1 25.733145 14.830369 19.714639 150
8727 4 19.773587 11.425227 21.595598 475
2061 5 15.408027 7.028643 15.649452 82
8255 4 20.141686 17.774557 18.461079 407
7271 8 25.099362 14.308052 25.209890 290
2406 6 19.693819 16.429289 21.527287 96
3767 8 25.500054 15.801992 20.143001 150
2412 5 21.199616 14.762612 24.639389 96
3764 5 25.812466 14.246510 21.756397 150
3769 1 25.029190 14.557045 18.430404 150
7202 9 19.390672 13.353766 17.780081 288
7270 8 26.290432 14.086728 24.070361 290