ITEM: TIMESTEP
2000
ITEM: NUMBER OF ATOMS
9600
ITEM: BOX BOUNDS pp pp pp
2.8468748738530500e+00 5.0153125126135954e+01
2.8468748738530500e+00 5.0153125126135954e+01
2.8468748738530500e+00 5.0153125126135954e+01
ITEM: ATOMS id type xu yu zu mol 
9020 10 6.948974 5.252657 9.133236 517 
1127 9 8.799503 7.942698 4.005502 45 
1134 1 8.984349 9.338847 4.399181 45 
2258 6 5.775924 8.378727 9.036507 90 
1129 3 7.862846 5.858846 3.911942 45 
1131 6 7.029946 7.527207 5.093077 45 
1128 2 7.721186 7.160743 4.412691 45 
2254 3 6.050619 9.418744 9.312862 90 
9026 4 7.473999 4.223243 10.264034 517 
1130 9 8.914732 5.891435 3.073284 45 
1126 2 9.485624 7.193624 3.021580 45 
1133 6 7.363122 4.868738 3.983960 45 
2263 1 8.319016 9.502867 8.359388 90 
1137 5 8.553173 9.996051 3.752140 45 
9025 4 8.334176 5.988283 9.135644 517 
1145 8 9.589865 4.308231 4.986169 45 
2255 9 7.209234 10.061084 9.069032 90 
1136 5 8.592520 9.595818 5.397377 45 
9023 4 5.502965 4.530347 9.115443 517 
2265 5 8.010332 8.475736 8.018971 90 
9024 4 6.323059 6.252555 10.216307 517 
2266 1 9.564424 9.342724 9.328477 90 
9022 4 6.399118 6.255690 7.947501 517 
3027 9 7.412374 6.060936 14.076918 121 
9021 4 7.455261 4.285505 8.036317 517 
3026 2 6.398327 5.460484 13.495652 121 
3034 1 7.575454 7.472178 14.241628 121 
2268 8 9.191077 8.858679 10.285941 90 
3032 7 5.459326 5.931204 13.125255 121 
8775 10 50.760970 8.754982 13.649015 482 
6808 6 51.280701 6.193324 7.467186 272 
1135 5 10.070407 9.622902 4.403134 45 
3039 5 4.774227 3.446993 12.982040 121 
2271 8 10.099034 7.579132 8.250967 90 
8870 4 5.859764 9.305784 5.480236 495 
6815 5 50.760114 5.841372 9.663454 272 
6814 5 50.442330 7.408035 10.507868 272 
3030 9 6.646595 4.089697 13.587640 121 
2075 8 9.779217 4.660908 11.576173 82 
3028 2 8.426517 5.187745 14.164620 121 
3038 1 5.618205 3.046904 13.532155 121 
3033 6 8.580555 2.949782 13.774423 121 
8776 4 51.586724 10.153002 13.584590 482 
9089 4 4.167551 51.924066 4.174393 526 
3036 5 7.608808 7.846530 13.198137 121 
2073 8 10.588920 5.210035 10.020642 82 
2264 5 8.634574 10.257010 7.573414 90 
2267 8 10.099651 10.283155 9.629472 90 
8169 4 9.068963 10.047537 12.937209 395 
1144 1 10.121591 3.549320 4.443594 45 
6806 6 50.484605 8.262770 5.655949 272 
2269 1 10.617370 8.527408 8.524296 90 
2072 1 10.719521 4.799741 11.041504 82 
8778 4 51.809454 8.099284 12.683565 482 
6804 3 50.432846 6.905393 7.457752 272 
9083 10 4.100672 50.403564 3.760752 526 
3031 6 9.440514 5.470147 14.334884 121 
2065 5 9.690057 3.738654 8.586584 82 
1141 1 10.392298 3.945508 2.964677 45 
3029 3 7.977268 3.915178 13.868246 121 
8868 4 4.106129 10.327599 4.961285 495 
2253 2 5.432773 10.135986 10.274815 90 
6823 8 50.753120 3.916070 10.738449 272 
2256 6 4.537035 10.004435 10.851473 90 
8172 4 10.503016 9.357803 14.378319 395 
9088 4 5.689271 50.267670 3.753317 526 
8871 4 4.577275 10.505646 7.036083 495 
8166 10 10.423760 10.579724 13.403339 395 
8167 4 11.224638 9.683198 12.285061 395 
2270 8 11.053564 9.085261 7.663613 90 
9016 4 16.784452 4.073971 3.792970 516 
2056 6 13.924532 3.755097 6.162498 82 
5438 1 17.469832 53.944003 13.971560 217 
2074 8 11.269101 5.606949 11.532792 82 
1331 6 17.483102 3.761773 9.162470 53 
2054 3 12.102194 3.842546 7.448741 82 
2273 8 12.262213 9.148580 9.793497 90 
2058 6 11.856385 4.839966 7.810194 82 
5431 6 13.870874 55.384509 11.497973 217 
1336 5 14.507950 4.678999 9.378687 53 
1334 1 15.249788 5.348565 9.749534 53 
7674 4 12.998916 8.466233 5.410547 324 
7672 4 13.411053 5.494367 4.244393 324 
7673 4 12.544926 7.472009 3.325878 324 
7669 10 13.201901 6.963053 4.771984 324 
5429 3 15.888348 54.836389 12.314483 217 
7671 4 14.643746 7.473483 4.331094 324 
1327 9 16.279438 5.516093 8.731162 53 
1335 5 15.760128 4.850064 10.636576 53 
1337 5 14.891459 6.298817 9.984624 53 
7670 4 13.860643 6.407030 6.129768 324 
1326 2 16.316972 6.453963 7.738673 53 
1332 7 15.599398 7.258085 7.674367 53 
2275 8 11.397836 7.647468 10.458960 90 
2272 1 11.724508 8.197294 9.579285 90 
2274 8 12.451997 7.565976 9.018613 90 
7675 4 11.730367 6.641018 5.324668 324 
5428 2 14.504539 54.859168 12.229458 217 
5433 6 16.557574 55.299602 11.646039 217 
5430 9 16.109091 54.056803 13.384987 217 
1328 2 17.236623 4.588696 8.463075 53 
1330 9 17.290431 6.085678 6.852457 53 
5427 9 13.956212 54.199098 13.315590 217 
1342 8 16.751393 8.730757 5.321142 53 
1329 3 17.889233 4.905447 7.306485 53 
1338 1 17.714678 6.815938 5.663101 53 
1339 5 17.154120 6.477060 4.837295 53 
5441 1 18.248761 52.722032 13.378278 217 
8679 4 17.471980 10.137738 10.112932 468 
431 6 14.607062 10.351693 52.783915 17 
5443 8 17.609979 51.888465 13.319360 217 
8678 4 15.531475 9.120929 9.603586 468 
2053 2 13.130895 3.277325 6.739931 82 
5434 1 12.518764 54.160107 13.645475 217 
5440 5 18.064682 54.870912 13.860964 217 
8677 10 16.022685 10.695267 9.774210 468 
8680 4 16.317344 10.698710 8.209956 468 
5435 5 12.129381 54.887351 12.985140 217 
2070 8 12.388709 3.583100 10.216532 82 
2069 1 11.511812 3.408588 10.800337 82 
5437 5 12.201349 53.182121 13.509033 217 
5426 2 14.988335 53.488563 13.866171 217 
2925 8 14.642888 50.160472 13.904876 116 
1341 1 17.695354 8.373054 5.640766 53 
1343 8 17.891093 8.741350 6.649962 53 
5446 8 18.171012 53.461977 11.377581 217 
1146 8 11.009499 3.231198 4.954851 45 
2071 8 11.734805 3.191098 11.842801 82 
1143 8 11.284755 4.434128 2.882238 45 
8682 4 15.642648 10.446515 11.305341 468 
1956 6 14.358257 9.651442 14.053055 78 
1958 6 17.130199 10.065149 13.649439 78 
435 5 14.213746 9.557145 50.708606 17 
1954 3 16.554394 10.241531 14.591474 78 
2828 2 24.561103 3.172447 4.175372 113 
5714 5 26.301458 8.966009 10.686865 228 
4243 8 26.442856 56.466346 51.162928 169 
1345 8 18.647709 8.693271 3.724995 53 
1333 6 18.730187 4.549647 6.769486 53 
5815 5 24.899184 3.618210 14.351014 232 
5450 8 18.789857 50.866324 11.594580 217 
5819 1 23.745160 3.264556 12.008729 232 
5715 5 25.515598 10.382757 9.957083 228 
5448 8 20.418295 51.349235 12.039270 217 
5442 8 18.955495 52.351586 14.080909 217 
4241 1 25.361226 56.621958 50.959695 169 
2829 3 25.411655 3.475278 5.219269 113 
9019 4 18.777730 2.921895 4.154999 516 
5822 1 23.358108 3.721931 10.582850 232 
5825 8 23.691046 4.740343 10.452899 232 
1340 5 18.713701 6.432374 5.487617 53 
5445 8 19.751357 53.741031 12.101361 217 
1344 1 18.878477 8.856298 4.804832 53 
1346 8 19.830928 8.288751 5.075055 53 
1347 1 19.094250 10.387693 4.970534 53 
1348 8 19.464016 10.585512 5.922328 53 
4233 6 22.065671 55.825203 51.460278 169 
5713 1 25.699035 9.315845 9.786386 228 
8108 4 23.085655 4.415205 7.491877 386 
5444 1 18.927844 52.943670 12.046890 217 
8106 4 21.093678 6.193691 5.846095 386 
5447 1 19.486062 51.606308 11.478966 217 
5704 3 24.042068 7.642380 10.370922 228 
5707 7 23.374877 10.093928 8.211990 228 
5702 9 22.269877 8.539852 9.322188 228 
5712 5 20.121446 8.614443 9.418810 228 
8105 4 23.087370 5.235576 5.441654 386 
8104 4 21.344133 3.990866 6.163491 386 
8103 10 22.077992 5.318247 6.665506 386 
5706 6 22.107052 6.520115 10.156890 228 
5709 1 20.958333 8.876048 8.758146 228 
5710 5 20.829222 8.440060 7.751943 228 
5703 2 22.712625 7.381283 9.975237 228 
5711 5 21.022787 9.970066 8.587975 228 
5701 2 23.346364 9.311332 9.028674 228 
5705 9 24.382481 8.803913 9.772227 228 
8109 4 21.048407 5.463681 7.784579 386 
7620 10 21.767021 8.929499 13.476618 317 
5816 1 23.237317 4.175408 13.170944 232 
5817 8 22.127424 4.130561 13.246021 232 
5708 6 24.766915 7.087463 10.991414 228 
7621 4 22.738195 10.017323 12.820157 317 
7622 4 20.915236 8.985787 12.189535 317 
8107 4 22.923191 6.545599 7.155602 386 
5818 8 23.514993 5.183358 12.885977 232 
7623 4 22.645984 7.787048 12.851683 317 
5449 8 19.722517 51.642169 10.421980 217 
5823 8 22.260860 3.658054 10.457848 232 
4242 8 24.920188 57.012101 51.877789 169 
7624 4 20.722345 7.926416 14.038284 317 
5718 8 26.023130 9.470673 7.656144 228 
2831 6 23.699218 3.688271 3.754188 113 
2006 6 19.202516 6.470429 3.281381 80 
4229 3 22.203208 55.692570 50.354679 169 
5824 8 23.684325 3.042853 9.844227 232 
4240 5 24.422546 54.753977 51.420345 169 
2850 8 25.820598 4.626590 9.837853 113 
5821 8 24.847107 3.149183 12.106864 232 
2833 6 25.325395 4.349518 5.823874 113 
4238 1 24.621892 55.349273 50.501538 169 
7625 4 20.937735 10.171701 14.133697 317 
5813 1 23.847037 3.795730 14.603594 232 
2845 8 26.300589 5.052676 7.266742 113 
9499 4 4.911608 16.656788 14.414192 585 
7347 1 8.462761 18.595017 12.092992 293 
8869 4 6.023510 11.200544 4.265931 495 
8170 4 9.604823 11.357635 14.481839 395 
7350 8 8.017605 17.550889 11.987770 293 
3442 8 3.507404 13.246277 50.832234 137 
7342 8 7.710725 18.172557 9.291814 293 
7349 8 9.543996 18.417530 12.190069 293 
2082 7 3.567716 12.926260 14.173227 83 
2092 8 2.894939 13.192001 11.967017 83 
4782 7 3.329576 17.535704 8.606208 191 
9497 4 4.700233 14.567710 13.582228 585 
4374 8 4.401855 15.672795 3.425083 174 
4786 5 4.715471 14.469905 6.647314 191 
4790 5 5.588203 17.988165 11.669378 191 
4788 1 4.671482 17.907559 11.056597 191 
4370 8 5.741934 13.815049 3.992512 174 
4369 1 6.208061 14.590803 3.456925 174 
4785 5 3.093779 14.708036 7.140560 191 
2251 2 7.260468 11.213443 9.712439 90 
4368 8 8.084194 15.677740 3.538146 174 
8867 4 4.773860 12.279557 5.815983 495 
4784 1 4.012723 15.248059 6.949457 191 
8866 10 5.370706 10.811362 5.703690 495 
8872 4 6.679106 11.225148 6.407649 495 
4373 8 5.529828 16.289041 4.639450 174 
2252 9 6.209043 11.246227 10.569866 90 
2261 5 6.176805 12.101210 12.442906 90 
2262 5 4.795807 12.617301 11.370249 90 
4372 1 5.454150 15.892898 3.596256 174 
2257 7 8.083185 11.907833 9.836079 90 
4777 9 4.573643 15.765371 8.183730 191 
2260 5 6.260912 13.378873 11.106824 90 
4366 1 7.675186 14.702860 3.931509 174 
2259 1 5.848959 12.410867 11.417778 90 
4778 2 5.566625 15.156772 8.877846 191 
4779 3 5.821892 15.940728 10.005633 191 
4783 6 6.600010 15.855846 10.751105 191 
9153 10 9.638974 14.649599 9.129592 536 
4781 6 6.114746 14.401575 8.395966 191 
4367 8 7.743904 14.824495 5.029424 174 
4357 7 9.431979 12.191750 5.907965 174 
4780 9 4.881451 16.841021 9.996083 191 
4363 1 8.543880 13.512707 3.501864 174 
4776 2 4.031463 16.784155 8.928990 191 
9157 4 10.021494 15.817339 10.140304 536 
9159 4 8.341834 14.209808 10.078032 536 
5584 1 9.802912 15.042378 13.918826 223 
4364 5 7.973822 12.540871 3.664734 174 
9154 4 9.110495 13.492198 8.150122 536 
4355 9 9.823372 13.397115 4.111659 174 
4351 2 10.114972 12.691308 5.283013 174 
5585 5 8.799932 14.707999 14.307384 223 
9498 4 6.705832 15.880231 13.424345 585 
9156 4 8.657631 15.690541 8.314250 536 
5586 5 10.267895 14.148538 13.514301 223 
8168 4 10.312088 11.808825 12.299987 395 
5587 5 9.897949 15.832888 13.180457 223 
9158 4 10.628328 13.657891 9.889039 536 
4787 5 3.886273 16.024139 6.184856 191 
7327 9 10.073637 18.161751 5.536701 293 
7326 2 10.109208 18.494440 6.858116 293 
9501 4 6.676601 13.966628 14.590115 585 
4793 8 3.528035 16.755971 12.589736 191 
4791 1 3.417190 17.652406 11.961737 191 
2099 8 3.332118 13.206412 9.453414 83 
7343 8 9.408187 18.235480 9.540847 293 
9496 10 5.780019 15.307510 14.551619 585 
4375 8 5.916914 16.714147 2.952424 174 
6793 8 18.476714 16.903836 11.213358 271 
8681 4 16.499962 12.181262 10.148739 468 
1349 8 18.158548 10.990577 4.816097 53 
2862 5 17.784369 18.164643 6.678053 114 
9155 4 10.774752 15.021535 8.117741 536 
7332 7 10.814082 18.096990 7.644570 293 
6795 8 15.713454 17.853576 12.107521 271 
8683 4 14.518295 11.120434 9.504416 468 
2290 5 11.425771 18.307507 10.644865 91 
2283 6 13.466811 17.691587 13.405405 91 
8171 4 11.826172 11.089820 13.942286 395 
428 2 15.119139 11.173491 52.304453 17 
7336 5 10.801185 17.271473 3.830210 293 
7335 5 12.051887 17.736461 4.955544 293 
7334 1 11.040050 17.247656 4.879065 293 
7337 5 11.070382 16.171985 5.260593 293 
426 2 16.045209 12.281920 50.650950 17 
440 5 18.150269 13.821800 51.249045 17 
4361 5 13.324440 12.713527 6.337660 174 
4362 5 12.327746 11.105808 6.226045 174 
427 9 15.166737 11.312950 50.971927 17 
4354 3 10.920682 14.037925 3.597530 174 
4360 5 11.754062 12.352058 7.403198 174 
439 5 16.954061 14.948220 51.815407 17 
4352 9 11.458829 12.834880 5.448003 174 
433 6 15.889520 12.513100 53.911659 17 
429 3 15.794040 12.257185 52.888780 17 
2280 9 12.810177 17.069493 11.482262 91 
2279 3 13.224460 16.856307 12.746004 91 
2281 6 13.493224 14.870022 13.744321 91 
7993 4 14.617713 16.380315 8.844458 370 
7997 4 14.653175 15.568435 5.701322 370 
430 9 16.405090 12.833300 51.839804 17 
2286 5 12.603220 12.982858 11.097223 91 
2285 5 13.840363 13.592801 10.156437 91 
4359 1 12.302829 12.212053 6.457040 174 
4356 6 12.926546 14.112099 4.759580 174 
4353 2 11.908464 13.769418 4.565611 174 
2282 7 12.482204 15.903292 9.696272 91 
2287 5 14.167489 13.287184 11.972611 91 
7991 10 14.691071 16.062988 7.231734 370 
2278 2 13.260378 15.463191 12.844918 91 
2277 9 13.098376 14.905349 11.575213 91 
2284 1 13.492091 13.586191 11.176959 91 
2276 2 12.658917 15.938023 10.747449 91 
7992 4 16.248417 16.262203 7.282852 370 
6790 5 16.448468 15.464375 10.747292 271 
7994 4 14.624063 17.617192 6.857714 370 
7995 4 13.121915 15.984198 7.260968 370 
6788 1 16.946400 15.474921 11.779996 271 
6789 5 16.300803 15.473563 12.664830 271 
6780 9 17.912344 14.341530 11.762465 271 
7996 4 14.797086 14.577774 7.634871 370 
438 1 17.382938 13.947977 52.015389 17 
6783 6 17.473188 13.687188 13.863347 271 
6791 1 17.674112 16.857808 11.926641 271 
6779 3 18.063361 13.584726 12.908895 271 
6792 8 18.007090 17.005231 12.943513 271 
6794 1 16.623483 17.969133 11.490666 271 
2288 1 12.387834 18.413857 11.088797 91 
442 8 17.556492 14.146162 54.103247 17 
441 1 18.226001 13.990807 53.303509 17 
2293 8 13.503826 18.539288 9.230601 91 
6796 8 16.390326 17.808920 10.418918 271 
2856 6 20.106778 18.119209 8.740308 114 
6784 1 20.400841 12.044949 10.423100 271 
1484 1 23.893418 18.324465 3.297541 59 
449 8 20.828582 15.922895 54.600924 17 
1495 8 26.322852 14.529818 5.899003 59 
8376 10 19.341695 18.377510 50.362455 425 
8691 10 22.999114 12.399206 6.154047 470 
1490 5 26.412329 17.882847 7.737609 59 
447 1 19.933745 15.252256 54.582603 17 
1483 6 23.442675 16.347975 7.540144 59 
1350 8 19.951577 10.779401 4.341089 53 
6787 5 20.287341 12.322418 9.450898 271 
1477 9 24.166908 17.647136 4.548602 59 
7145 8 20.808450 16.049846 14.402226 285 
3799 8 20.056052 13.243756 50.502710 151 
1482 7 26.190809 18.390774 5.136218 59 
8697 4 22.283569 12.073629 7.562032 470 
8382 4 20.162332 17.634014 51.441006 425 
443 8 18.671632 13.029948 53.575410 17 
1488 1 26.035710 16.864760 7.605131 59 
1486 5 22.913541 18.046622 2.927117 59 
8151 4 25.809652 15.490361 50.508357 392 
4248 8 25.932018 59.571055 50.765617 169 
8626 4 22.090852 15.310417 12.311621 460 
8695 4 22.727517 10.845065 5.710877 470 
3752 9 25.088951 13.042460 13.170782 150 
1481 6 22.260959 16.572190 5.045848 59 
8696 4 21.532778 12.646335 5.541970 470 
6785 5 20.259332 10.995349 10.580006 271 
8693 4 23.695618 12.685526 4.790093 470 
8692 4 23.080425 13.884481 6.603601 470 
6777 9 19.478615 12.914886 11.251497 271 
3751 2 25.507074 11.992120 13.962592 150 
8627 4 22.327556 15.339629 10.116591 460 
8694 4 24.438778 12.008392 6.682012 470 
8621 10 22.398855 16.459105 11.282849 460 
3757 7 25.100455 11.024485 13.942637 150 
445 8 18.825627 16.021846 52.846967 17 
6778 2 19.058446 12.679457 12.579137 271 
1476 2 25.332013 17.746514 5.291651 59 
6781 6 19.461153 11.871492 13.152776 271 
446 8 20.055685 14.794134 52.460087 17 
450 8 20.248335 14.310730 54.958096 17 
3753 2 25.702657 14.217872 13.711092 150 
3760 5 23.401251 12.504422 12.047349 150 
3756 6 25.579313 15.226184 13.329134 150 
3759 1 24.388423 12.930538 11.878267 150 
1478 2 23.290360 17.021778 5.377290 59 
6786 5 21.447687 12.186966 10.685491 271 
1489 5 25.489138 16.689649 8.573353 59 
1480 9 25.108944 17.118005 6.483136 59 
8622 4 23.896472 16.208719 11.626109 460 
8623 4 22.318938 17.544204 12.425335 460 
3762 5 24.277346 13.875109 11.345606 150 
8454 4 25.338261 17.200681 14.555535 436 
1496 8 26.148215 13.922862 7.537928 59 
6782 7 19.094169 14.633710 9.913939 271 
6776 2 18.840354 14.072415 10.797060 271 
448 8 19.173233 15.701708 55.251730 17 
8624 4 22.700377 17.570118 10.160344 460 
3761 5 25.070223 12.362253 11.237240 150 
444 1 19.278826 15.058101 53.219127 17 
8625 4 20.858225 16.682900 11.119641 460 
1479 3 23.831631 16.797338 6.587435 59 
2892 8 25.541922 18.488731 11.700510 115 
7148 8 22.365563 14.250349 14.597374 285 
3795 8 22.456461 13.213042 50.196793 151 
5752 9 7.145471 4.474881 20.494698 230 
4647 1 7.889600 7.261909 18.233800 185 
7451 2 52.130156 8.677294 24.009291 298 
7457 7 52.345445 7.703686 23.574517 298 
4649 8 7.458594 6.297038 17.914501 185 
4641 1 7.088493 9.734162 18.544688 185 
4644 1 6.748226 8.302392 18.104501 185 
4645 8 6.364582 8.233582 17.081694 185 
4646 8 5.939903 7.913062 18.671664 185 
5754 3 5.421789 4.402620 19.011400 230 
5753 2 5.863837 4.927488 20.220792 230 
4650 8 8.335182 7.213172 19.235721 185 
7956 10 8.727987 8.853009 23.045626 365 
4648 8 8.629385 7.377641 17.422392 185 
5759 1 7.893033 4.847845 21.716559 230 
5756 6 5.377164 5.550174 20.978602 230 
7452 9 52.284271 8.917055 25.365848 298 
7957 4 7.479065 7.879579 22.845141 365 
7958 4 8.583580 8.705313 24.633152 365 
4639 5 9.303210 9.833793 18.207840 185 
7961 4 7.755518 10.051449 23.343865 365 
7455 9 51.609383 9.809588 23.395971 298 
5758 6 4.519757 4.526601 18.406425 230 
5761 5 7.421599 4.562772 22.627945 230 
7463 1 51.173597 9.872973 21.959525 298 
7453 2 51.800092 10.214488 25.600186 298 
7465 5 51.857044 9.215650 21.448224 298 
7962 4 8.580378 9.151881 21.501958 365 
7608 4 9.438720 51.408641 16.872326 315 
5755 9 6.519858 3.615123 18.636764 230 
5751 2 7.539352 3.617746 19.554041 230 
5764 5 7.128473 3.649594 16.696153 230 
5762 5 7.981397 5.944400 21.633463 230 
8404 10 52.473610 51.150061 25.430703 429 
8405 4 53.085752 52.210389 24.429225 429 
4642 8 7.232077 9.841967 19.629187 185 
4643 8 6.196729 10.363332 18.380948 185 
4640 5 8.276464 10.059536 16.786088 185 
4638 1 8.341994 10.262850 17.826149 185 
7959 4 9.736228 7.593675 22.893448 365 
7960 4 9.945213 9.818205 23.183121 365 
8410 4 51.262363 52.027284 25.717242 429 
5760 5 8.879507 4.365658 21.716425 230 
7459 1 52.636009 7.926394 26.393096 298 
5763 1 6.652384 2.928154 17.383827 230 
7885 4 50.369386 6.776392 20.238530 354 
7882 4 50.300908 4.764582 21.480568 354 
8409 4 51.685360 50.337262 24.290351 429 
3749 8 9.935906 52.720125 24.669752 149 
5757 7 8.597614 3.438115 19.326825 230 
3746 8 8.109687 53.115150 26.270612 149 
7460 5 53.538744 7.459818 26.105945 298 
3035 5 6.662663 7.787318 14.830998 121 
3747 1 9.815448 52.169310 25.590750 149 
8406 4 53.757111 50.207693 25.367301 429 
3750 8 9.314835 51.252173 25.359126 149 
8781 4 51.700447 8.349163 14.884269 482 
7461 5 51.874454 7.153393 26.317252 298 
7464 5 50.179017 9.424954 21.936611 298 
3037 5 8.445923 7.704044 14.817846 121 
7611 4 10.788591 53.127981 16.412821 315 
3748 8 10.878856 51.960736 25.864631 149 
7607 4 11.091798 51.221277 15.491740 315 
5439 5 17.426717 53.793940 15.076162 217 
4310 5 11.236434 8.853421 20.036881 172 
2924 8 15.133645 50.858538 15.562489 116 
7610 4 10.746250 52.124059 18.534008 315 
7606 10 10.992836 51.664734 16.953455 315 
4325 8 12.355476 7.006303 25.808173 172 
4311 5 11.099389 7.254442 19.370004 172 
4312 5 12.604398 8.037639 19.127570 172 
7612 4 12.610679 51.966790 16.933607 315 
8321 4 15.947444 4.940233 22.866742 417 
8323 4 14.954811 3.401464 24.126770 417 
4309 1 11.768934 7.866104 19.868243 172 
4302 9 12.171367 7.482007 21.249825 172 
4306 6 11.212777 5.524881 21.273426 172 
7592 10 15.716151 6.944244 18.028503 313 
4303 2 11.813838 6.231661 21.832926 172 
4301 2 13.093226 8.115528 22.085248 172 
4305 9 13.173469 7.294666 23.155021 172 
7593 4 16.497741 5.616153 17.649033 313 
7595 4 14.704703 6.822482 16.787597 313 
4304 3 12.435713 6.133704 22.997083 172 
8320 10 16.458880 3.742565 23.763098 417 
7596 4 14.932100 8.214102 18.497259 313 
7597 4 16.828099 7.146856 19.166130 313 
7598 4 14.698305 6.134286 18.961131 313 
7594 4 16.638213 7.844408 17.088985 313 
4308 6 12.492292 5.303267 23.687208 172 
2907 7 14.254649 50.695215 17.905506 116 
4320 8 12.200662 9.228759 24.703351 172 
3833 6 17.604957 6.393041 21.467860 153 
8322 4 16.447245 4.794855 24.957494 417 
4313 1 14.342664 7.451606 24.098000 172 
4315 5 14.369458 6.589528 24.748447 172 
4316 1 14.260370 8.760269 24.838876 172 
4307 7 13.648212 8.967488 21.783267 172 
4319 1 12.893217 9.033432 25.473791 172 
4314 5 15.208375 7.606170 23.520211 172 
8325 4 17.939842 4.126996 23.339066 417 
4317 8 14.941604 8.685472 25.642074 172 
4318 8 14.566241 9.596198 24.154079 172 
8732 4 17.073750 10.115561 24.283051 475 
2909 1 13.276225 50.884788 20.545211 116 
2912 5 13.938803 51.625547 20.926011 116 
3839 5 18.596095 4.638538 19.965639 153 
2911 5 12.782465 51.412113 19.726228 116 
7223 8 15.970178 10.188986 19.998516 288 
7222 1 16.427571 10.430570 20.931828 288 
1967 8 18.277671 9.867220 17.837198 78 
7225 8 16.670328 9.418283 21.323998 288 
4321 8 12.873774 9.995194 25.961142 172 
7609 4 11.175989 50.208963 17.510542 315 
7221 8 18.351500 10.677161 20.131809 288 
8326 4 16.269600 2.861304 22.503267 417 
2910 5 12.526804 50.543777 21.285422 116 
5432 7 14.923600 52.915783 14.752245 217 
1960 5 13.395599 10.264595 17.647468 78 
1961 5 12.847799 9.714897 16.011770 78 
1955 9 16.991122 10.706133 15.795488 78 
1952 9 14.839949 10.325667 16.011389 78 
1959 1 13.508658 10.427934 16.566613 78 
8532 4 13.126920 10.305218 20.096982 447 
8731 4 17.714835 9.556243 26.363391 475 
4322 1 12.431863 7.965189 26.366222 172 
1953 2 15.178707 10.010165 14.736168 78 
5436 5 12.430639 54.475962 14.705459 217 
7626 4 22.660774 8.995305 14.805458 317 
5807 7 24.224969 6.720530 14.736176 232 
4754 3 23.940653 10.355517 25.412022 190 
4758 6 24.654398 9.529807 25.553088 190 
9483 4 23.148422 3.559353 20.017193 583 
8561 4 26.429813 9.183344 22.243666 451 
6963 1 26.448696 5.937627 25.902613 278 
3831 6 18.754073 8.260556 23.187604 153 
3829 3 18.698521 6.520313 21.708146 153 
9482 10 23.841514 2.960504 21.320229 583 
1660 5 20.569953 4.170513 23.955976 66 
1968 8 19.048856 9.292701 16.474612 78 
3828 2 19.216502 7.366663 22.615168 153 
3842 8 19.358270 6.535910 18.740158 153 
3848 8 19.932341 6.523360 16.206899 153 
1966 1 18.969653 10.154802 17.050504 78 
3845 8 18.861471 4.551652 17.433096 153 
3850 8 21.449616 5.882087 16.675764 153 
3846 8 20.618306 3.968288 17.675321 153 
5808 6 23.618587 3.417854 17.348164 232 
3849 8 20.490038 4.890558 15.506118 153 
3843 8 21.089341 6.139803 18.926940 153 
3847 1 20.440414 5.588096 16.373561 153 
3835 5 21.041457 8.343267 24.172787 153 
3836 5 21.908820 8.543893 22.641893 153 
3837 5 22.266512 7.084946 23.790601 153 
3840 5 20.225571 4.035011 20.115967 153 
3844 1 19.952866 4.845398 17.547175 153 
3841 1 20.077995 5.739432 18.780988 153 
3838 1 19.614119 4.901446 20.032860 153 
3830 9 19.707331 5.725554 21.277788 153 
5806 6 24.061812 5.681300 18.944650 232 
3832 7 21.833552 5.578773 21.792418 153 
3826 2 20.867887 5.937873 21.993495 153 
5804 3 23.841540 4.415379 17.039269 232 
3834 1 21.546507 7.827760 23.393774 153 
3827 9 20.595940 7.098644 22.714343 153 
5802 9 24.350699 6.545320 17.012334 232 
5809 1 24.656036 7.965154 17.386796 232 
5803 2 24.119118 5.539824 17.871838 232 
5811 5 24.163824 8.183579 18.320401 232 
8558 10 25.200025 8.375689 21.595963 451 
5810 5 25.743521 8.020462 17.564771 232 
8560 4 24.649758 7.980535 23.016682 451 
8563 4 24.055723 7.549124 20.916069 451 
8562 4 24.369163 9.646772 21.464954 451 
6965 5 25.418287 5.774091 25.501702 278 
5812 5 24.288157 8.653312 16.594133 232 
9488 4 23.944319 4.296085 22.097255 583 
6968 8 26.335712 8.094002 26.078560 278 
1973 8 21.938619 9.357068 18.695966 78 
1972 1 20.933372 9.201501 18.301644 78 
1969 1 20.303284 10.481922 17.722597 78 
1974 8 20.872635 8.435199 17.489030 78 
5801 2 24.107692 6.112231 15.637396 232 
1975 8 20.336584 8.875141 19.180106 78 
5805 9 23.850819 4.790770 15.720015 232 
8559 4 26.076740 7.038692 21.632013 451 
1659 1 20.655019 3.764022 25.006695 66 
9485 4 25.247591 3.408385 20.661132 583 
1662 5 19.667208 3.346189 25.259761 66 
8564 4 25.845956 8.706255 20.166513 451 
8727 4 19.242550 10.073863 24.917536 475 
8793 4 23.358250 6.386913 26.050806 484 
5814 5 23.420667 2.862994 14.974556 232 
1657 7 23.494996 3.556533 25.909565 66 
6957 7 26.369356 5.155452 23.268515 278 
1661 5 20.858431 4.548720 25.692030 66 
4756 6 23.036418 10.401503 23.400465 190 
9500 4 6.696278 15.988830 15.551742 585 
7454 3 51.434726 10.771573 24.395155 298 
7467 8 50.988476 11.070082 20.164601 298 
7466 1 51.204634 11.216534 21.218935 298 
923 8 56.757420 11.456022 26.042940 36 
2085 5 3.513743 11.020011 17.591088 83 
920 8 54.242537 10.834046 26.194663 36 
5577 9 10.579141 15.308769 15.103171 223 
2084 1 3.780124 11.782679 16.829810 83 
5557 7 52.336305 18.057167 17.002503 222 
7470 8 53.432115 11.310747 21.278357 298 
5591 1 10.269273 18.262139 18.094508 223 
7659 4 5.320357 18.194700 19.897615 322 
5593 8 9.893852 17.628925 18.834968 223 
1443 8 51.791430 17.907842 23.793595 57 
1433 6 50.610012 17.058131 20.952599 57 
4633 6 7.884061 12.328594 16.003346 185 
4630 9 8.555640 11.678882 18.026355 185 
4629 3 8.170638 12.531842 17.074034 185 
9502 4 4.893643 14.728518 15.789312 585 
4632 7 9.355923 11.842901 20.031091 185 
975 8 6.783411 16.036955 26.323290 38 
4626 2 8.784912 12.262654 19.245630 185 
7471 8 52.558334 12.438790 22.401142 298 
7469 1 52.554839 12.006931 21.345778 298 
7474 8 51.914559 13.772811 20.151690 298 
971 8 9.214602 15.768340 26.208091 38 
972 1 7.200492 15.494167 25.511896 38 
7475 8 52.753433 12.518795 19.193199 298 
7472 1 52.719285 13.026482 20.171543 298 
4636 5 9.843496 14.399419 20.591569 185 
4637 5 8.040218 14.769454 20.764790 185 
4627 9 8.579385 13.565738 19.067572 185 
4628 2 8.102128 13.685709 17.763156 185 
4634 1 8.878864 14.654350 20.039910 185 
4631 6 7.943630 14.651608 17.274154 185 
4635 5 8.920727 15.629264 19.579093 185 
969 1 8.662980 15.812381 25.279136 38 
966 1 9.217576 14.906575 24.102434 38 
974 8 6.563800 15.748238 24.633991 38 
968 8 9.088174 13.891925 24.310651 38 
973 8 7.121045 14.415455 25.673161 38 
970 8 8.824151 16.795544 25.015362 38 
7473 8 53.657741 13.538704 20.337405 298 
967 8 8.670182 15.113133 23.254487 38 
7468 8 50.330618 11.791634 21.486824 298 
7660 4 7.016738 16.992288 19.140249 322 
7657 4 5.973849 16.588141 21.189835 322 
7655 10 6.773376 17.778756 20.501123 322 
7458 6 50.997821 11.766669 24.108078 298 
7656 4 8.209669 17.226451 20.991319 322 
1442 8 50.582343 18.358332 25.042979 57 
9012 4 51.260819 15.109001 25.546568 515 
5592 8 9.512025 18.244528 17.257938 223 
2086 5 3.935251 12.739312 17.312479 83 
963 1 10.664977 15.215705 23.898509 38 
2087 5 4.640040 11.547518 16.251534 83 
5568 8 50.190481 17.018669 16.374811 222 
6124 8 8.381361 18.478347 26.318196 244 
5270 8 13.953751 18.230664 21.725703 210 
5589 5 12.096206 18.319694 16.789867 223 
5581 6 10.777730 13.382540 15.894145 223 
952 9 12.672659 13.555524 26.313487 38 
5258 6 15.393279 18.307869 17.285510 210 
8254 4 16.089260 15.460723 14.967616 407 
5482 7 17.931645 18.391933 26.095947 219 
5576 2 10.878507 16.560828 15.512538 223 
5582 7 10.763471 17.448457 14.942938 223 
1962 5 13.225897 11.469896 16.364551 78 
5271 8 15.360295 17.251810 21.909305 210 
951 2 11.800741 14.483326 25.986413 38 
5578 2 10.985144 14.402172 16.106450 223 
5274 8 12.746000 16.438405 21.138078 210 
1957 7 15.831970 11.451048 17.584878 78 
8253 4 16.552176 16.130629 17.150061 407 
956 6 13.684869 12.057133 25.417641 38 
7224 8 15.782526 10.920123 21.663094 288 
1951 2 15.920881 10.970190 16.597070 78 
8255 4 14.513639 14.074483 15.774468 407 
8918 4 14.995891 18.139827 24.874928 502 
958 6 11.989233 12.912704 23.135276 38 
964 5 10.962066 15.334078 22.845997 38 
5580 9 11.410389 16.447935 16.730614 223 
5579 3 11.553011 15.137346 17.147580 223 
8252 4 14.514584 16.391072 16.241296 407 
8730 4 16.665709 11.628083 25.956861 475 
953 2 12.967018 12.787953 25.234733 38 
8916 4 12.789403 17.481518 25.218578 502 
965 5 10.898305 16.101733 24.429868 38 
954 3 12.123701 13.163379 24.179176 38 
955 9 11.472419 14.305931 24.663947 38 
5266 1 14.961151 17.778414 19.874518 210 
5588 1 11.627537 17.650666 17.546851 223 
5268 8 15.738123 17.075628 19.479516 210 
8256 4 16.544718 14.007499 16.721532 407 
8726 10 17.946409 10.825349 25.415802 475 
5275 8 13.761567 15.662111 22.371854 210 
8917 4 14.542305 16.090327 25.832951 502 
5273 8 13.971833 15.419852 20.705641 210 
8535 4 12.148723 11.907984 18.863684 447 
8536 4 12.475694 13.397363 20.529424 447 
5272 1 13.743144 16.111648 21.388823 210 
5583 6 12.099824 14.844693 18.039549 223 
8915 10 14.151992 17.608151 26.108253 502 
5267 8 14.066246 17.795419 19.212285 210 
8533 4 13.383782 11.748889 21.687324 447 
8534 4 11.362853 11.451259 20.785377 447 
8530 10 12.784623 11.858091 20.290622 447 
8531 4 14.178931 12.311478 19.705141 447 
8250 10 15.498670 15.156673 16.444486 407 
7202 9 17.474631 15.233206 23.837398 288 
7205 9 17.077428 14.398274 21.789831 288 
7201 2 16.909933 14.213434 23.142114 288 
7207 7 16.460206 13.424165 23.627280 288 
7213 1 16.505075 13.604229 20.714190 288 
7215 5 15.711419 13.127770 21.339791 288 
7204 3 17.854643 15.476903 21.621595 288 
7214 5 16.007903 14.242752 19.929745 288 
7203 2 18.004105 16.010110 22.881094 288 
7209 1 17.764342 15.494545 25.223860 288 
7217 8 17.048123 12.328309 19.031117 288 
7208 6 18.241042 15.850660 20.682010 288 
5590 5 12.394815 17.483585 18.268268 223 
8251 4 14.786919 14.912377 17.883525 407 
7211 5 17.504027 14.588107 25.711037 288 
5269 1 14.547853 17.432554 21.302669 210 
7218 8 18.356564 12.963659 19.749322 288 
7216 1 17.394293 12.517204 20.046035 288 
1963 1 18.322653 11.205675 16.188515 78 