variable        infile index data.mol
variable        mytemp index 300

# set up simulation
#read_restart    ${NAME}.restart.*

# the following information is saved to restart files
units           real
atom_style      full
boundary        f f f
pair_style      lj/cut/coul/cut 12
#kspace_style    pppm 0.0001
pair_modify     tail no
pair_modify     mix arithmetic
special_bonds   lj 0.0 0.0 0.0 coul 0.0 0.0 0.0

bond_style      harmonic
angle_style     harmonic
dihedral_style  charmm
improper_style  cvff  

read_data       ${infile}
read_data       data.mol
  3 = max bonds/atom
  3 = max angles/atom
  8 = max dihedrals/atom
  2 = max impropers/atom
  orthogonal box = (-5.979 -5.647 -5.5015) to (5.979 5.647 5.5015)
  1 by 1 by 1 processor grid
  12 atoms
  12 bonds
  18 angles
  24 dihedrals
  6 impropers
  3 = max # of 1-2 neighbors
  4 = max # of 1-3 neighbors
  8 = max # of 1-4 neighbors
  10 = max # of special neighbors

#replicate       5 5 5

#neighbor        2.0 bin
#neigh_modify    delay 0 every 1 check yes page 1000000 one 20000 
timestep        1.0
#velocity        all create ${mytemp} 314159265 mom yes rot yes dist gaussian

## end information that is saved to restart files

## create velocity profile
#minimize       1e-4 1e-6 10000 10000
velocity        all create  ${mytemp} 314159265 units box
velocity        all create  300 314159265 units box
velocity        all zero linear units box
dump            DUMP all custom 2000 ${NAME}.lammpstrj id type x y z vx vy vz mol
dump            DUMP all custom 2000 mol.lammpstrj id type x y z vx vy vz mol
thermo_style    custom step vol temp press ke pe etotal enthalpy evdwl ecoul epair ebond eangle edihed eimp emol elong etail lx ly lz xy xz yz
thermo          1000
#
## thermostat and integrator

#fix             NPT all npt temp ${mytemp} ${mytemp} 100.0 iso 1.0 1.0 100.0
fix             NVT all nvt temp ${mytemp} ${mytemp} 100.0 
fix             NVT all nvt temp 300 ${mytemp} 100.0 
fix             NVT all nvt temp 300 300 100.0 

restart         50000 restart.${NAME}.1 restart.${NAME}.2
restart         50000 restart.mol.1 restart.${NAME}.2
restart         50000 restart.mol.1 restart.mol.2
run             2000000
Memory usage per processor = 0.406044 Mbytes
Step Volume Temp Press KinEng PotEng TotEng Enthalpy E_vdwl E_coul E_pair E_bond E_angle E_dihed E_impro E_mol E_long E_tail Lx Ly Lz Xy Xz Yz 
       0    1485.9953          300   -63.519775    9.8366732    1.8256965     11.66237    10.285787  -0.20912666    1.9915559    1.7824292  0.042924382 0.00022239737 7.6468019e-05 4.4040706e-05  0.043267288            0            0       11.958       11.294       11.003            0            0            0 
    1000    1485.9953    458.96997    222.88824    15.049125    5.8346173    20.883743    25.714113  -0.20954756    1.9732686    1.7637211     2.175062    1.0587715   0.61401418   0.22304858    4.0708962            0            0       11.958       11.294       11.003            0            0            0 
    2000    1485.9953    375.58667   -726.50065    12.315078    6.6012179    18.916296    3.1717788  -0.20805031    1.9951025    1.7870522    1.5359424    2.5071622   0.67505858  0.096002539    4.8141657            0            0       11.958       11.294       11.003            0            0            0 
    3000    1485.9953    293.85654    1252.1692    9.6352359    8.6279901    18.263226    45.399884   -0.2158389    2.0234679     1.807629    2.4897919    1.5694248    1.9905681   0.77057629    6.8203611            0            0       11.958       11.294       11.003            0            0            0 
    4000    1485.9953    258.53971   -725.07319    8.4772355      9.09412    17.571355     1.857774  -0.20900447    1.9921814    1.7831769    2.6143645    1.5990327    2.2450229   0.85252289    7.3109431            0            0       11.958       11.294       11.003            0            0            0 
    5000    1485.9953    249.44587   -459.76427    8.1790583    11.202983    19.382041    9.4181597  -0.21178378    2.0329322    1.8211484    2.2201996    2.7785229    3.0863414    1.2967705    9.3818345            0            0       11.958       11.294       11.003            0            0            0 
    6000    1485.9953    282.99356    610.24217    9.2790504    11.812125    21.091175    34.316171  -0.21492999    2.0276543    1.8127243    3.9666817    1.4093302    3.3442893    1.2790994    9.9994007            0            0       11.958       11.294       11.003            0            0            0 
    7000    1485.9953    275.46885   -784.64267    9.0323233     9.948183    18.980506     1.975952  -0.21025278    2.0253186    1.8150658    3.2244906   0.58786624    2.9168008    1.4039596    8.1331172            0            0       11.958       11.294       11.003            0            0            0 
    8000    1485.9953    270.46095   -298.72146      8.86812    9.2544504     18.12257    11.648763  -0.21102174    1.9976057     1.786584    2.3330916   0.90642474    3.2654566   0.96289355    7.4678664            0            0       11.958       11.294       11.003            0            0            0 
    9000    1485.9953    288.34146    980.97495    9.4544022    11.150446    20.604849    41.864261  -0.21616253    2.0321335     1.815971    3.7481974    1.9962772    2.5186554    1.0713454    9.3344754            0            0       11.958       11.294       11.003            0            0            0 
   10000    1485.9953    215.47297   -662.87179    7.0651241    7.4923814    14.557505   0.19193511  -0.20910041    1.9969494    1.7878489    1.9124648    1.8288002    1.5220224   0.44124495    5.7045324            0            0       11.958       11.294       11.003            0            0            0 
   11000    1485.9953    322.73027    1072.3217    10.581974    6.8823343    17.464308    40.703362  -0.21371941    1.9942122    1.7804928    2.1626229    1.5737154   0.92379496   0.44170821    5.1018415            0            0       11.958       11.294       11.003            0            0            0 
   12000    1485.9953    367.34468    54.176047    12.044832    10.571639    22.616471    23.790559  -0.21158359    2.0144359    1.8028523    4.1812354    3.7851585   0.58674357   0.21564898    8.7687865            0            0       11.958       11.294       11.003            0            0            0 
   13000    1485.9953    362.26356   -643.26734    11.878228    9.3987646    21.276992     7.336284  -0.20884373    1.9914258    1.7825821    2.5754124    2.2879962    1.8935959   0.85917799    7.6161825            0            0       11.958       11.294       11.003            0            0            0 
   14000    1485.9953    210.35357    770.72984    6.8972645    9.3037055     16.20097    32.904009  -0.21461644    2.0174296    1.8028132     3.159252   0.95955693    2.2810285     1.101055    7.5008923            0            0       11.958       11.294       11.003            0            0            0 
   15000    1485.9953     285.7977   -1562.6392    9.3709952    13.586185     22.95718   -10.907896   -0.2084919    2.0121701    1.8036782    3.7660518     2.131929    4.1725516    1.7119746    11.782507            0            0       11.958       11.294       11.003            0            0            0 
   16000    1485.9953      396.879     1665.096     13.01323    14.739325    27.752555    63.838046  -0.22034733    2.0635443    1.8431969    4.6364761     0.995064    5.2381445    2.0264438    12.896128            0            0       11.958       11.294       11.003            0            0            0 
   17000    1485.9953      387.532   -1016.2781    12.706752     9.614988     22.32174   0.29724881  -0.20712335    1.9696122    1.7624889    4.8465793   0.40040948    1.8045269   0.80098346    7.8524991            0            0       11.958       11.294       11.003            0            0            0 
   18000    1485.9953    279.12701    488.46488    9.1522705    7.8612644    17.013535    27.599408    -0.213711    2.0354987    1.8217877    2.9884775   0.95127094    1.6825705    0.4171577    6.0394767            0            0       11.958       11.294       11.003            0            0            0 
   19000    1485.9953    368.58342    409.87868    12.085449    7.5928706    19.678319    28.561094  -0.21122832    1.9868901    1.7756618     2.982797    1.6261923    1.0028248    0.2053946    5.8172088            0            0       11.958       11.294       11.003            0            0            0 
   20000    1485.9953    456.42899   -281.97947    14.965809    6.0351436    21.000953    14.889973  -0.20889333    1.9992267    1.7903333    2.7408781   0.98328357   0.36540333   0.15524525    4.2448103            0            0       11.958       11.294       11.003            0            0            0 
   21000    1485.9953    314.12799    411.82044    10.299915    7.3509645    17.650879    26.575735  -0.21219896    2.0052843    1.7930854    2.7251951   0.54009908     1.853724   0.43886095    5.5578791            0            0       11.958       11.294       11.003            0            0            0 
   22000    1485.9953    354.02439   -15.869141    11.608074    8.1688007    19.776875    19.432963   -0.2108816    1.9932699    1.7823883    3.3556861   0.73842743    1.6214976   0.67080127    6.3864123            0            0       11.958       11.294       11.003            0            0            0 
   23000    1485.9953    322.44989   -1249.9962     10.57278    10.277666    20.850446    -6.239119  -0.20767711     1.993887    1.7862099    3.6518792    1.4074591    2.3925957    1.0395218    8.4914558            0            0       11.958       11.294       11.003            0            0            0 
   24000    1485.9953    242.00932     1161.714    7.9352221    9.0147685    16.949991    42.126329  -0.21646857    2.0325911    1.8161225    2.4602727    1.2646312    2.4597835    1.0139586     7.198646            0            0       11.958       11.294       11.003            0            0            0 
   25000    1485.9953    238.91393   -352.58625    7.8337274    12.664713     20.49844    12.857291  -0.21276903    2.0375617    1.8247927    2.2599124    3.9657554    3.1586181    1.4556342     10.83992            0            0       11.958       11.294       11.003            0            0            0 
   26000    1485.9953    240.17586   -1023.2839    7.8751048    12.103509    19.978614    -2.197706  -0.20935169    2.0030546    1.7937029    3.3102616    2.0183512    3.5489716    1.4322216    10.309806            0            0       11.958       11.294       11.003            0            0            0 
   27000    1485.9953    226.42383    992.48446    7.4241907     9.838783    17.262974    38.771817   -0.2150127     2.015532    1.8005193    3.3561908    2.3008614    1.5907714   0.79043999    8.0382636            0            0       11.958       11.294       11.003            0            0            0 
   28000    1485.9953    333.61205    -656.9997    10.938776    8.3433969    19.282173    5.0438604    -0.208838    2.0002656    1.7914276    3.2175134    1.7438227    1.4157538   0.17487944    6.5519693            0            0       11.958       11.294       11.003            0            0            0 
   29000    1485.9953    373.09175   -864.79384    12.233272    11.447365    23.680637    4.9390689   -0.2075498    1.9709719    1.7634221    5.1761735    1.3518952    2.2854325    0.8704417    9.6839429            0            0       11.958       11.294       11.003            0            0            0 
   30000    1485.9953    366.10325    1523.0916    12.004127    11.743466    23.747593    56.755604  -0.21859669    2.0583114    1.8397147    4.1613971    1.2388647    3.2178684    1.2856209    9.9037512            0            0       11.958       11.294       11.003            0            0            0 
   31000    1485.9953    255.81383   -957.86524    8.3878569    10.876018    19.263875   -1.4947104  -0.20951624    2.0078943     1.798378    3.1484846    1.1054793    3.2396289     1.584047    9.0776397            0            0       11.958       11.294       11.003            0            0            0 
   32000    1485.9953    119.50782     660.2859    3.9185312    8.6798439    12.598375    26.907905  -0.21426061    2.0132135    1.7989529    2.6434887    1.3434248    2.1161789   0.77779857    6.8808911            0            0       11.958       11.294       11.003            0            0            0 
   33000    1485.9953    309.49275   -268.98423     10.14793     10.74234     20.89027     15.06092  -0.21164537    2.0206518    1.8090065    2.8960825     2.555346     2.321766    1.1601387    8.9333332            0            0       11.958       11.294       11.003            0            0            0 
   34000    1485.9953    266.71477    76.919869    8.7452866    9.4545627    18.199849    19.866835  -0.21122173    2.0002206    1.7889989    4.3989469    1.5846294    1.1820556   0.49993197    7.6655638            0            0       11.958       11.294       11.003            0            0            0 
   35000    1485.9953    290.52313    12.326645    9.5259369    8.7633328     18.28927    18.556409  -0.21037132    1.9904726    1.7801012    3.1091663    2.9504111   0.66915263   0.25450151    6.9832315            0            0       11.958       11.294       11.003            0            0            0 
   36000    1485.9953    333.75112   -295.03018    10.943336    9.8740852    20.817421     14.42361  -0.21058135    2.0182495    1.8076681    3.4891462    2.9617278    1.2473828   0.36816028    8.0664171            0            0       11.958       11.294       11.003            0            0            0 
   37000    1485.9953    210.84899    445.52109    6.9135086    7.4935866    14.407095    24.062303  -0.21265584    2.0026355    1.7899797    2.5327462    1.2566081    1.3988424   0.51541019    5.7036069            0            0       11.958       11.294       11.003            0            0            0 
   38000    1485.9953    191.54935   -312.35566    6.2806946    10.960526     17.24122    10.471937  -0.21201776    2.0187256    1.8067079    3.0749687    1.9671226    2.7736195    1.3381072     9.153818            0            0       11.958       11.294       11.003            0            0            0 
   39000    1485.9953     240.3576   -110.92831    7.8810638    17.284841    25.165904    22.761897  -0.21548508     2.053913    1.8384279    6.4473318    2.3539729    4.7998494    1.8452586    15.446413            0            0       11.958       11.294       11.003            0            0            0 
   40000    1485.9953    215.09484    271.74875    7.0527256    11.354798    18.407524    24.296786  -0.21322112    2.0115352    1.7983141    4.1999488    1.7220059    2.5010613    1.1334685    9.5564844            0            0       11.958       11.294       11.003            0            0            0 
   41000    1485.9953    259.98586   -586.47324     8.524653    7.8534588    16.378112    3.6682293  -0.20938669    2.0034986    1.7941119    3.2506105   0.93067603    1.3804926   0.49756775    6.0593469            0            0       11.958       11.294       11.003            0            0            0 
   42000    1485.9953    376.80995     655.5074    12.355188    9.1046721     21.45986    35.665831  -0.21318117    2.0084607    1.7952796    4.4480099   0.92936034    1.5936654    0.3383569    7.3093925            0            0       11.958       11.294       11.003            0            0            0 
   43000    1485.9953    316.39515    238.46147    10.374252    9.8665546    20.240807    25.408676  -0.21237726    1.9999604    1.7875832    3.8034166     1.398221    2.0715912   0.80574265    8.0789715            0            0       11.958       11.294       11.003            0            0            0 
   44000    1485.9953      206.866   -968.40285    6.7829107    12.156227    18.939137   -2.0478158  -0.21029964    2.0245199    1.8142203    3.8876546    1.7780163    3.2608393    1.4154962    10.342006            0            0       11.958       11.294       11.003            0            0            0 
   45000    1485.9953    382.81324    847.48556    12.552029    13.903586    26.455615    44.822083  -0.21532999    2.0210723    1.8057423    5.1790592    2.7047225    2.8821349    1.3319273    12.097844            0            0       11.958       11.294       11.003            0            0            0 
   46000    1485.9953    352.14631   -159.95975    11.546494     10.17081    21.717304    18.250702  -0.21042277    1.9997561    1.7893333    5.3738587    1.3191786    1.3291345   0.35930536    8.3814771            0            0       11.958       11.294       11.003            0            0            0 
   47000    1485.9953    380.07035   -847.33927    12.462093    13.106812    25.568905    7.2056075  -0.20844934    1.9834077    1.7749583    5.3948031    3.2844222    1.9291961   0.72343254    11.331854            0            0       11.958       11.294       11.003            0            0            0 
   48000    1485.9953    242.53978    1777.5617    7.9526153    12.724989    20.677604     59.20042  -0.21980834    2.0490811    1.8292728    3.5582356    1.9256579    3.7552058    1.6566171    10.895716            0            0       11.958       11.294       11.003            0            0            0 
   49000    1485.9953    212.03127   -2000.9237    6.9522744    12.786201    19.738475   -23.624979  -0.20646485    2.0031605    1.7966956    3.9901295    2.0344903    3.5051408    1.4597448    10.989505            0            0       11.958       11.294       11.003            0            0            0 
   50000    1485.9953    266.72808    711.40714    8.7457233    7.3925511    16.138274    31.555689  -0.21360761    2.0127646     1.799157    1.7430395    1.4850538    1.8115482   0.55375253    5.5933941            0            0       11.958       11.294       11.003            0            0            0 
   51000    1485.9953    525.02868    386.29402    17.215118      6.58797    23.803088    32.174743  -0.21084279    1.9946105    1.7837677    3.1633454     1.146494   0.41271794  0.081644999    4.8042023            0            0       11.958       11.294       11.003            0            0            0 
   52000    1485.9953    379.84242   -336.22245    12.454619    8.6158058    21.070425    13.783907  -0.21040714    2.0113355    1.8009284    2.0431506    2.5523456    1.7010179   0.51836343    6.8148774            0            0       11.958       11.294       11.003            0            0            0 
   53000    1485.9953     199.7095    582.18048     6.548257    10.475304    17.023561    29.640412  -0.21482086    2.0151373    1.8003164    1.6741519    1.7938619    3.5143368    1.6926366    8.6749873            0            0       11.958       11.294       11.003            0            0            0 
   54000    1485.9953    309.62372   -928.70083    10.152225    12.234242    22.386467    2.2599246  -0.21021914    2.0161312    1.8059121    3.2817233    1.6161492    3.8799821    1.6504754     10.42833            0            0       11.958       11.294       11.003            0            0            0 
   55000    1485.9953    347.52492    1153.0272    11.394963     8.619406    20.014369     45.00245  -0.21594626    2.0351007    1.8191544    2.9018456   0.49849604    2.4397142   0.96019575    6.8002516            0            0       11.958       11.294       11.003            0            0            0 
   56000    1485.9953    363.30309    184.41112    11.912313    5.8286868    17.740999    21.737505  -0.21037327    1.9873556    1.7769823    2.3564105   0.69388801   0.72218479   0.27922125    4.0517045            0            0       11.958       11.294       11.003            0            0            0 
   57000    1485.9953    251.89732   -875.46564    8.2594387    11.313962      19.5734   0.60055608  -0.21082628     2.029856    1.8190298    2.1792751    1.8968572    3.8453755     1.573424    9.4949318            0            0       11.958       11.294       11.003            0            0            0 
   58000    1485.9953    347.02661    1020.5801    11.378625     11.60886    22.987485    45.105209  -0.21631277    2.0275985    1.8112857    2.0926481    2.0370858     3.892811    1.7750298    9.7975747            0            0       11.958       11.294       11.003            0            0            0 
   59000    1485.9953    408.99328   -391.76256    13.410444     8.159797    21.570241    13.080073  -0.20946959    1.9896895    1.7802199    2.4402072    1.0096244    2.2974111   0.63233437    6.3795771            0            0       11.958       11.294       11.003            0            0            0 
   60000    1485.9953    251.79721   -260.23905    8.2561562    7.0881697    15.344326    9.7044988  -0.21009454    2.0011178    1.7910233    2.7130003    1.0370206    1.1327803   0.41434541    5.2971465            0            0       11.958       11.294       11.003            0            0            0 
   61000    1485.9953    223.88806    884.46451    7.3410456    11.116461    18.457507    37.625372  -0.21596233    2.0277563     1.811794     2.943222    1.1595917    3.6507786    1.5510747     9.304667            0            0       11.958       11.294       11.003            0            0            0 
   62000    1485.9953     288.6248   -630.51994    9.4636926    12.754129    22.217822    8.5533717  -0.21169474    2.0372374    1.8255427    4.8178446    1.1664034    3.4579138    1.4864248    10.928587            0            0       11.958       11.294       11.003            0            0            0 
   63000    1485.9953    568.97663    317.35431    18.656124    8.3652032    27.021327     33.89894  -0.21061636    1.9841839    1.7735676      2.85691    1.7468039    1.5373703   0.45055149    6.5916356            0            0       11.958       11.294       11.003            0            0            0 
   64000    1485.9953    235.87111    614.32551    7.7339566    13.350727    21.084683    34.398172  -0.21605591    2.0358832    1.8198273    2.2829896    3.4543721     3.830691    1.9628468    11.530899            0            0       11.958       11.294       11.003            0            0            0 
   65000    1485.9953    200.75242   -883.48753     6.582453    9.0316085    15.614061   -3.5326309  -0.20972959    2.0213333    1.8116038    2.0837908    1.6319296    2.3886876    1.1155967    7.2200047            0            0       11.958       11.294       11.003            0            0            0 
   66000    1485.9953    388.35402    371.40439    12.733705    6.5762666    19.309972    27.358943  -0.21006038    1.9639546    1.7538942     3.099205   0.45319168    1.0279779   0.24199781    4.8223724            0            0       11.958       11.294       11.003            0            0            0 
   67000    1485.9953    333.22252    62.170831    10.926003    13.772064    24.698067    26.045416  -0.21578659    2.0735414    1.8577549    2.8059462     1.669387    5.0324087    2.4065671    11.914309            0            0       11.958       11.294       11.003            0            0            0 
   68000    1485.9953     331.4357   -613.01017    10.867415    11.328662    22.196077    8.9110938  -0.21072469    2.0121173    1.8013926    1.6816298    2.3759066    3.9515131    1.5182196     9.527269            0            0       11.958       11.294       11.003            0            0            0 
   69000    1485.9953    301.94499    1153.2274    9.9004473    9.5589725     19.45942    44.451838  -0.21522301    2.0066836    1.7914606    4.1745278    1.5060559    1.4470841   0.63984412    7.7675119            0            0       11.958       11.294       11.003            0            0            0 
   70000    1485.9953    272.54675   -633.00329     8.936511    9.9277655    18.864277    5.1460078  -0.21011201    2.0202864    1.8101744    4.7614139   0.82972385    1.7283831   0.79807027    8.1175911            0            0       11.958       11.294       11.003            0            0            0 
   71000    1485.9953     231.6395    680.08127    7.5952067    9.7439956    17.339202    32.077732  -0.21496756    2.0214533    1.8064857    1.6401787     1.498068    3.2660305    1.5332327    7.9375099            0            0       11.958       11.294       11.003            0            0            0 
   72000    1485.9953    309.67783    -242.3714    10.153999    7.9052857    18.059284     12.80668  -0.21047464    1.9988253    1.7883507    2.2769901    2.1495186    1.2522346   0.43819181    6.1169351            0            0       11.958       11.294       11.003            0            0            0 
   73000    1485.9953    378.31129   -732.88238    12.404415    9.3061921    21.710607     5.827787  -0.20879298    2.0002805    1.7914875    2.8768181    2.1694624    1.7121103   0.75631387    7.5147046            0            0       11.958       11.294       11.003            0            0            0 
   74000    1485.9953    175.14031    1371.6481    5.7426598    10.585133    16.327793    46.053763  -0.21798927    2.0406603     1.822671    1.6427002     2.606286    3.0507217    1.4627543    8.7624623            0            0       11.958       11.294       11.003            0            0            0 
   75000    1485.9953     381.2754   -854.08015    12.501605     6.582171    19.083776   0.57439213  -0.20743496    1.9910525    1.7836175    1.9067572    1.2939907     1.155914    0.4418916    4.7985535            0            0       11.958       11.294       11.003            0            0            0 
   76000    1485.9953    297.59589   -398.48141     9.757845    13.590697    23.348542    14.712765  -0.21235262    2.0139735    1.8016208    2.9667961    1.3388232    5.3030154    2.1804411    11.789076            0            0       11.958       11.294       11.003            0            0            0 
   77000    1485.9953    364.57799    1538.7592    11.954115    8.4388908    20.393006     53.74056  -0.21729246    2.0436803    1.8263878    2.1466215    1.4043795     2.134002   0.92749986    6.6125029            0            0       11.958       11.294       11.003            0            0            0 
   78000    1485.9953     361.0908   -1364.2626    11.839774     7.781618    19.621392    -9.944523  -0.20603362     1.984268    1.7782343    1.8630058    2.1355597    1.4324136   0.57240457    6.0033837            0            0       11.958       11.294       11.003            0            0            0 
   79000    1485.9953    325.21379    772.84492    10.663406    13.444553    24.107959    40.856836  -0.21573295    2.0240324    1.8082994    2.8650846    3.1892122    3.7748694    1.8070879    11.636254            0            0       11.958       11.294       11.003            0            0            0 
   80000    1485.9953    186.50124   -392.59101    6.1151724    10.351348    16.466521     7.958399  -0.21214559     2.034504    1.8223584    2.2851938    1.9458823    2.9388862    1.3590274    8.5289897            0            0       11.958       11.294       11.003            0            0            0 
   81000    1485.9953    303.95126   -311.59323    9.9662307    10.789801    20.756031    14.003271  -0.21003577    1.9848826    1.7748468    3.7999971     2.757684    1.7977176   0.65955514    9.0149538            0            0       11.958       11.294       11.003            0            0            0 
   82000    1485.9953     286.0157    1071.1914    9.3781432    12.884889    22.263032    45.477589  -0.21772615    2.0522312     1.834505    2.1435903    2.7928868    4.3531924    1.7607143    11.050384            0            0       11.958       11.294       11.003            0            0            0 
   83000    1485.9953    321.54498   -1616.9097     10.54311    9.4755018    20.018611     -15.0226  -0.20614183    1.9881527    1.7820109    1.8031143    1.9072333    2.7647757    1.2183676    7.6934909            0            0       11.958       11.294       11.003            0            0            0 
   84000    1485.9953    235.23242     1188.081    7.7130149    7.3551189    15.068134    40.815889  -0.21530663    2.0148784    1.7995718    1.5166517    2.1680634    1.3705108   0.50032115    5.5555471            0            0       11.958       11.294       11.003            0            0            0 
   85000    1485.9953    218.74444   -1376.7035    7.1723919    15.692684    22.865076   -6.9704537  -0.21052932    2.0300245    1.8194952    3.0529129    2.3521901    5.6779947    2.7900908    13.873189            0            0       11.958       11.294       11.003            0            0            0 
   86000    1485.9953    510.95467   -57.390446    16.753647    8.8796487    25.633296    24.389546  -0.21001917    1.9886575    1.7786383     2.873665    1.6209205    2.1750855   0.43133935    7.1010104            0            0       11.958       11.294       11.003            0            0            0 
   87000    1485.9953    274.15705    1476.3794    8.9893111    13.261621    22.250932    54.246611  -0.21984749    2.0655125     1.845665    2.5601477    2.3031636    4.5472108    2.0054342    11.415956            0            0       11.958       11.294       11.003            0            0            0 
   88000    1485.9953    309.28305   -1987.8951    10.141054    9.2254338    19.366488   -23.714614  -0.20401901    1.9680581    1.7640391    3.2750048    1.8641027    1.9324606   0.38982662    7.4613947            0            0       11.958       11.294       11.003            0            0            0 
   89000    1485.9953    151.25018    1157.0867    4.9593285    12.052503    17.011831    42.087888  -0.21821148    2.0476525     1.829441    3.1004653     1.489911    3.8488592    1.7838263    10.223062            0            0       11.958       11.294       11.003            0            0            0 
   90000    1485.9953    362.64708   -501.83053    11.890803    8.1004378     19.99124    9.1157107  -0.20900825    1.9936524    1.7846441    2.7112426    1.7114406    1.3210104   0.57209995    6.3157936            0            0       11.958       11.294       11.003            0            0            0 
   91000    1485.9953    348.62609   -1109.8229     11.43107    15.150424    26.581494    2.5297254  -0.20971054    2.0043753    1.7946647    2.0604361    5.4150497    4.1873123    1.6929615     13.35576            0            0       11.958       11.294       11.003            0            0            0 
   92000    1485.9953    300.05755    1723.8318    9.8385603     12.88106    22.719621    60.078017  -0.21964851    2.0450535     1.825405    1.9090061    4.1897659    3.7155173     1.241366    11.055655            0            0       11.958       11.294       11.003            0            0            0 
   93000    1485.9953     271.3585    -1633.773    8.8975495    8.2833349    17.180884   -18.225783  -0.20580557    1.9780453    1.7722398    2.2145681    2.0535124    1.5115487     0.731466    6.5110952            0            0       11.958       11.294       11.003            0            0            0 
   94000    1485.9953    236.92694    727.40548    7.7685763    9.8781007    17.646677    33.410803  -0.21511677    2.0234378     1.808321     2.814436   0.58268276    3.3132991    1.3593619    8.0697797            0            0       11.958       11.294       11.003            0            0            0 
   95000    1485.9953    481.21895    397.92905    15.778645    7.9101631    23.688808    32.312614  -0.21230908    2.0151168    1.8028077     2.132838   0.61625177    2.4432982   0.91496749    6.1073554            0            0       11.958       11.294       11.003            0            0            0 
   96000    1485.9953    438.62302   -1609.0511    14.381971    13.245429      27.6274   -7.2435012  -0.20799712    2.0095853    1.8015882    1.5645975     1.951241    5.3992757    2.5287265    11.443841            0            0       11.958       11.294       11.003            0            0            0 
   97000    1485.9953    303.50124    1740.9867    9.9514751    9.1308648     19.08234    56.812513  -0.21835926    2.0418543     1.823495    3.0565658    0.9053345    2.2332189    1.1122505    7.3073697            0            0       11.958       11.294       11.003            0            0            0 
   98000    1485.9953    313.28915   -1652.8758     10.27241    8.9360316    19.208442   -16.612215  -0.20524368    1.9733851    1.7681414    3.4315675    2.1010987    1.3581382   0.27708569    7.1678901            0            0       11.958       11.294       11.003            0            0            0 
   99000    1485.9953    300.30043    827.56245    9.8465238    11.071428    20.917952    38.852652  -0.21562689    2.0292581    1.8136312    2.1981522    2.0420978    3.6867734    1.3307737    9.2577971            0            0       11.958       11.294       11.003            0            0            0 
  100000    1485.9953    536.22339    883.89866    17.582181     8.341715    25.923896    45.079498  -0.21338211    2.0032508    1.7898687    2.1172304    2.4621686    1.2749078   0.69753945    6.5518462            0            0       11.958       11.294       11.003            0            0            0 
  101000    1485.9953    251.29907   -1536.1428    8.2398228     15.18598    23.425803   -9.8650506  -0.20943796    2.0141698    1.8047318    2.1063092    3.5579452    5.1371766    2.5798168    13.381248            0            0       11.958       11.294       11.003            0            0            0 
  102000    1485.9953    328.02791    1575.3598    10.755678    6.2888717     17.04455    51.185302  -0.21602773     2.015428    1.7994003    1.5126116    1.2864968     1.219433   0.47092999    4.4894714            0            0       11.958       11.294       11.003            0            0            0 
  103000    1485.9953    223.08928   -1036.9469    7.3148545    12.570801    19.885655   -2.5867642  -0.21032996    2.0207359    1.8104059    1.7304881    4.0174526    3.3326229    1.6798314    10.760395            0            0       11.958       11.294       11.003            0            0            0 
  104000    1485.9953    315.07685   -209.06765    10.331027      9.61898    19.950007    15.419152  -0.21094415    2.0013685    1.7904243     2.434145    2.1877819    2.2075587   0.99907003    7.8285557            0            0       11.958       11.294       11.003            0            0            0 
  105000    1485.9953    339.95735    1263.5885    11.146831    6.1129486     17.25978    44.643913  -0.21512689    2.0237936    1.8086667    1.7363308    1.2994187   0.98716766   0.28136471    4.3042819            0            0       11.958       11.294       11.003            0            0            0 
  106000    1485.9953    180.99897   -1042.1995     5.934759    13.171108    19.105867   -3.4803874  -0.21092128    2.0223554    1.8114342    1.5411412    3.5561072    4.4853786    1.7770464    11.359673            0            0       11.958       11.294       11.003            0            0            0 
  107000    1485.9953    372.26901    284.01157    12.206295    9.2022187    21.408514    27.563532  -0.21121928    1.9810481    1.7698288    2.6188389    2.0173861    2.2703098   0.52585508    7.4323899            0            0       11.958       11.294       11.003            0            0            0 
  108000    1485.9953    335.74204    100.08602    11.008616    11.942494     22.95111    25.120146  -0.21418874    2.0493489    1.8351602    3.1504889    1.7219014    3.5665365    1.6684071    10.107334            0            0       11.958       11.294       11.003            0            0            0 
  109000    1485.9953    334.34506   -226.07451     10.96281    8.6494806    19.612291    14.712868  -0.21000389    1.9885762    1.7785723    1.7672151    2.4134639     1.923395   0.76683433    6.8709084            0            0       11.958       11.294       11.003            0            0            0 
  110000    1485.9953    179.83384    723.39722    5.8965558    7.9614113    13.857967    29.535227  -0.21517743    2.0286575    1.8134801    1.1322437   0.60362076    3.2090234    1.2030433    6.1479312            0            0       11.958       11.294       11.003            0            0            0 
  111000    1485.9953    350.31805   -1400.2345    11.486547    10.207561    21.694108   -8.6513794  -0.20673443    1.9795191    1.7727847    1.9536809    3.1522918    2.2851378    1.0436656    8.4347761            0            0       11.958       11.294       11.003            0            0            0 
  112000    1485.9953    297.32632    1374.9039    9.7490061    9.0901235     18.83913    48.635659  -0.21723528    2.0309161    1.8136808    1.4973818   0.97066128    3.4926405    1.3157591    7.2764427            0            0       11.958       11.294       11.003            0            0            0 
  113000    1485.9953     349.9396   -204.93091    11.474138    7.5072441    18.981382    14.540177  -0.21073782    2.0122377    1.8014999    1.6200809   0.95350752    2.2136483   0.91850739    5.7057442            0            0       11.958       11.294       11.003            0            0            0 
  114000    1485.9953    473.47566   -486.95053    15.524751    9.1247299    24.649481    14.096426  -0.20877312    1.9845446    1.7757715     2.313577     1.410358    2.5542427    1.0707807    7.3489584            0            0       11.958       11.294       11.003            0            0            0 
  115000    1485.9953    238.99823    719.57006    7.8364916    9.6520356    17.488527    33.082846  -0.21562988    2.0353827    1.8197528    2.1647189    1.5316127    2.9187517    1.2171995    7.8322828            0            0       11.958       11.294       11.003            0            0            0 
  116000    1485.9953      316.497   -243.31506    10.377592     7.316522    17.694114    12.421058  -0.21019778    2.0004774    1.7902796   0.69624795    2.5686539    1.6080712   0.65326935    5.5262424            0            0       11.958       11.294       11.003            0            0            0 
  117000    1485.9953    378.62265   -153.68015    12.414624    8.7802602    21.194885    17.864372  -0.21050234    1.9891767    1.7786743    2.1765273    2.1668051    2.0036641   0.65458953    7.0015859            0            0       11.958       11.294       11.003            0            0            0 
  118000    1485.9953    151.33955   -250.29299     4.962259    10.219061     15.18132    9.7570412  -0.21220657    2.0201697    1.8079631    2.2181788    2.6465256    2.4388863    1.1075073    8.4110981            0            0       11.958       11.294       11.003            0            0            0 
  119000    1485.9953     354.2441    24.789396    11.615278     11.12698    22.742258    23.279486  -0.21242635    2.0230637    1.8106373     2.382426    2.9446448    2.6908917    1.2983797    9.3163422            0            0       11.958       11.294       11.003            0            0            0 
  120000    1485.9953    325.96059   -158.75545    10.687893    6.6461989    17.334091    13.893588  -0.20945311    1.9810665    1.7716134    2.9108386   0.64713618    1.0429638   0.27364689    4.8745855            0            0       11.958       11.294       11.003            0            0            0 
  121000    1485.9953    210.52776    780.98031    6.9029758    11.408918    18.311894    35.237079  -0.21678077    2.0516397     1.834859    2.8034343    2.6468386    2.9945488    1.1292375    9.5740592            0            0       11.958       11.294       11.003            0            0            0 
  122000    1485.9953    252.13426   -797.24805    8.2672075    9.6999111    17.967119   0.68938401  -0.20907739    1.9931127    1.7840353    1.8843367       2.3648    2.6064066    1.0603325    7.9158758            0            0       11.958       11.294       11.003            0            0            0 
  123000    1485.9953    380.03901    76.893357    12.461065    9.5714207    22.032486    23.698897  -0.21084471    1.9928076    1.7819629    4.6901418    1.5935807    1.1598444   0.34589098    7.7894579            0            0       11.958       11.294       11.003            0            0            0 
  124000    1485.9953     265.2471    556.75276    8.6971635      6.84271    15.539874    27.605662  -0.21331885    2.0173074    1.8039886    1.4847743    2.5077899    0.8459162   0.20024107    5.0387214            0            0       11.958       11.294       11.003            0            0            0 
  125000    1485.9953    276.95575    -700.3751    9.0810773    11.863455    20.944532    5.7662006  -0.21040498     2.001954    1.7915491    3.2587281    2.3860579    3.0611513    1.3659684    10.071906            0            0       11.958       11.294       11.003            0            0            0 
  126000    1485.9953    263.53094    61.442943    8.6408923     12.09255    20.733442    22.065016  -0.21325674    2.0223617     1.809105    3.0706385     2.159618    3.5996093    1.4535791    10.283445            0            0       11.958       11.294       11.003            0            0            0 
  127000    1485.9953    201.98138   -814.65904    6.6227494    12.643022    19.265772     1.610711  -0.21019418     2.006812    1.7966178    3.4615512    3.3392775     2.729927    1.3156489    10.846405            0            0       11.958       11.294       11.003            0            0            0 
  128000    1485.9953    173.44872   -196.59009    5.6871945    8.1803179    13.867512    9.6070676  -0.21065349    1.9933406    1.7826871    3.4248046    1.6945983   0.86021811   0.41800982    6.3976308            0            0       11.958       11.294       11.003            0            0            0 
  129000    1485.9953    375.98472   -867.39625     12.32813    10.984656    23.312785    4.5148187  -0.20735056    1.9780758    1.7707252    5.6260866    2.1980022   0.97684051   0.41300141    9.2139306            0            0       11.958       11.294       11.003            0            0            0 
  130000    1485.9953    538.72447     1048.009    17.664188    11.228314    28.892503    51.604658  -0.21436931    2.0272942    1.8129249    4.5879322    4.1650437   0.47511903   0.18729462    9.4153895            0            0       11.958       11.294       11.003            0            0            0 
  131000    1485.9953    254.56258   -532.83143    8.3468297     10.76824     19.11507    7.5676974  -0.20957174    1.9800288    1.7704571    3.6514767    3.3973644     1.332413   0.61652886     8.997783            0            0       11.958       11.294       11.003            0            0            0 
  132000    1485.9953    264.09317   -380.87342    8.6593275     11.74816    20.407488    12.153306  -0.21218671    2.0283199    1.8161332    3.2475424    1.8053824    3.5527993     1.326303     9.932027            0            0       11.958       11.294       11.003            0            0            0 
  133000    1485.9953    291.69098    907.70068    9.5642293    12.800349    22.364578    42.036011  -0.21696467    2.0447882    1.8278236    3.5225777    2.7905518    3.2632675    1.3961282    10.972525            0            0       11.958       11.294       11.003            0            0            0 
  134000    1485.9953    141.52458   -776.42139    4.6404367    7.8392943    12.479731   -4.3466542  -0.20895934    1.9863314    1.7773721    1.7143457    2.0684948     1.623739   0.65534272    6.0619222            0            0       11.958       11.294       11.003            0            0            0 
  135000    1485.9953    316.05714     373.1305    10.363169     9.373739    19.736908    27.823287  -0.21341668    2.0230599    1.8096433    1.7501591    2.6593857    2.3664832   0.78806776    7.5640958            0            0       11.958       11.294       11.003            0            0            0 
  136000    1485.9953    400.57267    166.24797    13.134342    7.4808993    20.615241     24.21812  -0.21088983    1.9858336    1.7749438    2.6849699     1.486529    1.1841666   0.35029001    5.7059555            0            0       11.958       11.294       11.003            0            0            0 
  137000    1485.9953    272.99557   -555.68715    8.9512272    9.8389273    18.790155    6.7474595  -0.20918471    1.9892322    1.7800475    3.7726881    2.7489869    1.1277863    0.4094186    8.0588798            0            0       11.958       11.294       11.003            0            0            0 
  138000    1485.9953    291.45707    1272.2385    9.5565598     8.393126    17.949686     45.52128   -0.2160863    2.0335812    1.8174949    3.2438632    1.8535101     1.289568   0.18868982    6.5756312            0            0       11.958       11.294       11.003            0            0            0 
  139000    1485.9953    397.72106    12.821525     13.04084    6.1645572    19.205398    19.483262  -0.21039008    2.0005919    1.7902019    1.6708219    1.4098415   0.86082222    0.4328697    4.3743554            0            0       11.958       11.294       11.003            0            0            0 
  140000    1485.9953    328.59643    -1224.957    10.774319    11.788389    22.562708   -3.9842138  -0.20723664    1.9836308    1.7763942    3.8920784    2.9560452    2.3346113   0.82926006    10.011995            0            0       11.958       11.294       11.003            0            0            0 
  141000    1485.9953    372.58453    606.01175    12.216641    14.249293    26.465934    39.599249  -0.21542863    2.0347277    1.8192991    3.9094626     4.186223    3.2415049    1.0928033    12.429994            0            0       11.958       11.294       11.003            0            0            0 
  142000    1485.9953     314.2921    320.41619    10.305296     10.57454    20.879835    27.823805   -0.2137409    2.0311709      1.81743    3.2428302    1.6664548    2.5666339    1.2811909    8.7571098            0            0       11.958       11.294       11.003            0            0            0 
  143000    1485.9953    114.88446   -852.61181    3.7669363    7.7557807    11.522717   -6.9548455  -0.20847723    1.9839496    1.7754723    1.7790935    1.5235378    1.9615516   0.71612546    5.9803084            0            0       11.958       11.294       11.003            0            0            0 
  144000    1485.9953    256.52211    298.15081    8.4110806    11.924149    20.335229     26.79667  -0.21464746    2.0265075      1.81186     3.045578    3.0255599    2.8383558    1.2027949    10.112289            0            0       11.958       11.294       11.003            0            0            0 
  145000    1485.9953    274.05068    680.06519    8.9858231    9.9262254    18.912048    33.650229  -0.21537226    2.0439972    1.8286249    3.0350599    1.5664122     2.455645    1.0404834    8.0976004            0            0       11.958       11.294       11.003            0            0            0 
  146000    1485.9953    268.72051   -906.39271    8.8110527    10.179747      18.9908  -0.65228685  -0.20834056    1.9834797    1.7751391    2.5615048     2.473084    2.5820945     0.787925    8.4046083            0            0       11.958       11.294       11.003            0            0            0 
  147000    1485.9953    434.00044    650.25873    14.230402    6.5238681     20.75427    34.846493  -0.21262507    2.0173209    1.8046958    1.0144539    3.2106616   0.34569619   0.14836059    4.7191723            0            0       11.958       11.294       11.003            0            0            0 
  148000    1485.9953    486.50389    388.73967    15.951933    6.7525804    22.704513     31.12917  -0.21123929     2.005777    1.7945377    1.8197158     2.670699   0.35048774   0.11714016    4.9580427            0            0       11.958       11.294       11.003            0            0            0 
  149000    1485.9953    300.13151   -651.90111    9.8409851    7.6107138    17.451699    3.3238819    -0.208188    1.9827512    1.7745632    2.1670547    1.4547077     1.595972   0.61841628    5.8361506            0            0       11.958       11.294       11.003            0            0            0 
  150000    1485.9953    264.28381    741.79137    8.6655783    10.805512    19.471091    35.546984  -0.21580427    2.0472305    1.8314263    2.6952994    2.2143144    2.9527033    1.1117691    8.9740862            0            0       11.958       11.294       11.003            0            0            0 
  151000    1485.9953    288.88145   -242.06007    9.4721081    10.441014    19.913122    14.667265   -0.2114528    2.0084261    1.7969733    2.1857403    2.2919097    2.7085238     1.457867    8.6440409            0            0       11.958       11.294       11.003            0            0            0 
  152000    1485.9953    245.63731   -524.66808    8.0541798    10.281247    18.335427    6.9649684  -0.20971362    1.9811569    1.7714433    2.2982963     3.641133    2.0518189   0.51855566    8.5098039            0            0       11.958       11.294       11.003            0            0            0 
  153000    1485.9953    259.99877    613.55542    8.5250764    8.5907697    17.115846    30.412646  -0.21385193    2.0227325    1.8088806    2.4681576    2.7084872    1.2606761   0.34456821    6.7818891            0            0       11.958       11.294       11.003            0            0            0 
  154000    1485.9953    228.61721   -245.89935    7.4961091    10.346144    17.842254    12.513192  -0.21072385    1.9973906    1.7866668    3.4296425    3.5127705    1.3737988   0.24326586    8.5594777            0            0       11.958       11.294       11.003            0            0            0 
  155000    1485.9953    184.48185   -127.41125     6.048959     10.10154    16.150499    13.389279  -0.21120088    1.9946078     1.783407     3.740199    2.9307918    1.2376252   0.40951759    8.3181335            0            0       11.958       11.294       11.003            0            0            0 
  156000    1485.9953    237.17863    120.25579    7.7768288    11.438653    19.215482    21.821632   -0.2132297    2.0220571    1.8088274    2.5834925    3.4220868    2.7351309    0.8891157    9.6298259            0            0       11.958       11.294       11.003            0            0            0 
  157000    1485.9953    272.83173   -144.33602    8.9458553    12.956291    21.902146    18.774137  -0.21301106    2.0178834    1.8048724    2.0548071    4.8074622    3.0174063    1.2717429    11.151418            0            0       11.958       11.294       11.003            0            0            0 
  158000    1485.9953    210.14019   -174.79967    6.8902679    8.8377219     15.72799    11.939781  -0.21141089    2.0006789     1.789268    1.0892294    2.7042026    2.3360968   0.91892515    7.0484539            0            0       11.958       11.294       11.003            0            0            0 
  159000    1485.9953    327.98757    279.12134    10.754355    12.089611    22.843966    28.893005  -0.21349413    2.0196625    1.8061683    1.8288343    4.8843651    2.4361316    1.1341113    10.283442            0            0       11.958       11.294       11.003            0            0            0 
  160000    1485.9953    484.72832   -972.95104    15.893714    12.011741    27.905455    6.8199346  -0.20691176    1.9692871    1.7623753    5.4432468    3.3610515    1.1601352   0.28493246    10.249366            0            0       11.958       11.294       11.003            0            0            0 
  161000    1485.9953    302.50483    622.69423    9.9188039    9.4383436    19.357148    32.852001  -0.21361005    2.0165772    1.8029671    3.3266504    3.6689231   0.45675933   0.18304365    7.6353764            0            0       11.958       11.294       11.003            0            0            0 
  162000    1485.9953    262.80947   -34.725857    8.6172362    10.638869    19.256105    18.503536  -0.21170301    2.0028187    1.7911157     3.489621    4.3205313   0.77375076   0.26385012    8.8477532            0            0       11.958       11.294       11.003            0            0            0 
  163000    1485.9953    264.66243   -771.78201    8.6779929    11.713954    20.391947    3.6661056  -0.20892189    1.9935378    1.7846159    5.2979266    3.0688451    1.1656285   0.39693841    9.9293386            0            0       11.958       11.294       11.003            0            0            0 
  164000    1485.9953    277.58291    232.23228    9.1016411    14.721771    23.823412    28.856284   -0.2137229    2.0181525    1.8044296    5.7647554    4.2721819    1.9901031   0.89030062    12.917341            0            0       11.958       11.294       11.003            0            0            0 
  165000    1485.9953    188.10073   -207.36284    6.1676179    13.197865    19.365483    14.871574  -0.21264952    2.0189524    1.8063029    3.2075814    4.5640667    2.3784017    1.2415122    11.391562            0            0       11.958       11.294       11.003            0            0            0 
  166000    1485.9953    179.02364   -686.20874    5.8699901     13.29534     19.16533    4.2940083  -0.21048295    2.0036343    1.7931514    4.8928396    3.1976288     2.559196   0.85252451    11.502189            0            0       11.958       11.294       11.003            0            0            0 
  167000    1485.9953    421.80736    906.72295    13.830604    12.953604    26.784208    46.434451  -0.21517202    2.0220862    1.8069141    4.1390019    5.0134313    1.3005838   0.69367286     11.14669            0            0       11.958       11.294       11.003            0            0            0 
  168000    1485.9953    314.93293   -1177.4501    10.326308    12.495878    22.822186   -2.6951796  -0.20682245    1.9739871    1.7671646    4.6851114    4.9223049   0.98580567   0.13549157    10.728714            0            0       11.958       11.294       11.003            0            0            0 
  169000    1485.9953    170.70842    375.43337    5.5973432    7.0832487    12.680592    20.816878  -0.21276784    2.0145284    1.8017606     1.761855    1.8302227    1.3480533   0.34135714    5.2814881            0            0       11.958       11.294       11.003            0            0            0 
  170000    1485.9953    303.74245    543.78097    9.9593841    9.7305511    19.689935    31.474603  -0.21397749     2.023417    1.8094395    2.6572139     2.677732    1.8925294   0.69363629    7.9211115            0            0       11.958       11.294       11.003            0            0            0 
  171000    1485.9953    239.00795   -1095.9605    7.8368103    12.587812    20.424623   -3.3267248  -0.20879878    1.9985255    1.7897267    2.8313512    3.7747127    2.7542928    1.4377289    10.798086            0            0       11.958       11.294       11.003            0            0            0 
  172000    1485.9953    237.35891    219.43442    7.7827402    11.012963    18.795703    23.551224  -0.21317326    2.0147892    1.8016159     1.520844    3.7824195     3.055313   0.85277059    9.2113472            0            0       11.958       11.294       11.003            0            0            0 
  173000    1485.9953    407.05073    235.65817     13.34675    10.263116    23.609866    28.716983  -0.21248169    2.0207121    1.8082304    2.8884864    3.4601468    1.3339946   0.77225749    8.4548852            0            0       11.958       11.294       11.003            0            0            0 
  174000    1485.9953    361.78295   -163.06597    11.862469    8.7135292    20.575998    17.042078  -0.20987971    1.9842612    1.7743815    2.9535098    2.3238066    1.3357043     0.326127    6.9391477            0            0       11.958       11.294       11.003            0            0            0 
  175000    1485.9953    203.73414    197.15956    6.6802205    8.7243726    15.404593    19.677379  -0.21269213    2.0165341     1.803842    1.1145906    2.6995103    2.1766752   0.92975451    6.9205307            0            0       11.958       11.294       11.003            0            0            0 
  176000    1485.9953    274.63718   -110.11482    9.0050539    11.490753    20.495807    18.109429  -0.21283126    2.0376018    1.8247706    2.6726952    2.6510575    3.1023388    1.2398907    9.6659822            0            0       11.958       11.294       11.003            0            0            0 
  177000    1485.9953    274.02971    138.58889    8.9851356    11.412083    20.397218    23.400677  -0.21266351    2.0037015     1.791038    2.9171802    3.5856426    2.1359468   0.98227511    9.6210447            0            0       11.958       11.294       11.003            0            0            0 
  178000    1485.9953    244.58065   -621.73188     8.019533    9.4479389    17.467472    3.9934741  -0.21012867    2.0070044    1.7968757    1.5974755    3.4046891    1.8199657   0.82893291    7.6510632            0            0       11.958       11.294       11.003            0            0            0 
  179000    1485.9953    282.38749    369.87289    9.2591781    8.8107497    18.069928    26.085709  -0.21266157    2.0124011    1.7997395    1.7201687    3.8242593    1.1178354    0.3487468    7.0110102            0            0       11.958       11.294       11.003            0            0            0 
  180000    1485.9953    381.31809    556.20243    12.503005    8.4003879    20.903393    32.957255   -0.2129438    2.0087977    1.7958538    1.5467469     3.581029   0.98511054   0.49164761     6.604534            0            0       11.958       11.294       11.003            0            0            0 
  181000    1485.9953    224.88135   -751.24357    7.3736143    7.3138845    14.687499   -1.5932398  -0.20908028    1.9952293     1.786149    1.0957846    3.1422807   0.92567457    0.3639956    5.5277356            0            0       11.958       11.294       11.003            0            0            0 
  182000    1485.9953    332.37025    341.83315    10.898058      6.45056    17.348618     24.75673  -0.21123103    1.9885327    1.7773016     1.352659    2.2931585   0.84676135   0.18067952    4.6732583            0            0       11.958       11.294       11.003            0            0            0 
  183000    1485.9953    487.78448    216.20298    15.993922    5.7866377     21.78056     26.46605  -0.21067941    2.0103522    1.7996728    1.6013686    1.8295877   0.38445646   0.17155211    3.9869649            0            0       11.958       11.294       11.003            0            0            0 
  184000    1485.9953    412.47997   -39.261486    13.524769    9.5666493    23.091418    22.240554  -0.21080324    2.0025571    1.7917539    2.8223402    2.9259193    1.8759985    0.1506374    7.7748954            0            0       11.958       11.294       11.003            0            0            0 
  185000    1485.9953    304.26413    293.10329    9.9764895    8.9584458    18.934935    25.286987  -0.21241196    1.9963652    1.7839532    1.8599908    2.1324654    2.2888395   0.89319691    7.1744926            0            0       11.958       11.294       11.003            0            0            0 
  186000    1485.9953    264.78927    -307.4916    8.6821518    8.4471527    17.129304    10.465433  -0.21183061    2.0241453    1.8123147    1.1157064    1.6412394    2.7880848    1.0898072    6.6348379            0            0       11.958       11.294       11.003            0            0            0 
  187000    1485.9953    250.97521    822.99698    8.2292037    9.8615028    18.090707    35.926465  -0.21529755    2.0226861    1.8073885    2.0976569    1.9547618    2.9622858    1.0394097    8.0541143            0            0       11.958       11.294       11.003            0            0            0 
  188000    1485.9953    263.44162   -760.99438    8.6379636    11.525104    20.163067    3.6710118  -0.21009872    2.0014312    1.7913325    4.1336632    2.0866398    2.3896517    1.1238164    9.7337711            0            0       11.958       11.294       11.003            0            0            0 
  189000    1485.9953    234.00578    -535.0037    7.6727945     6.821685     14.49448    2.9000304  -0.20875327    1.9855645    1.7768112    1.7043469    1.9489041    1.0818053   0.30981751    5.0448738            0            0       11.958       11.294       11.003            0            0            0 
  190000    1485.9953    314.34362    1538.2943    10.306985    10.980549    21.287533    54.625012  -0.21801802     2.044808    1.8267899    4.4773157    1.9966107    2.0407651   0.63906727    9.1537588            0            0       11.958       11.294       11.003            0            0            0 
  191000    1485.9953    542.39435    -858.0057     17.78452    11.545391     29.32991    10.735453  -0.20868715    1.9914851     1.782798    3.5501929    3.9833937    1.7521839   0.47682225    9.7625927            0            0       11.958       11.294       11.003            0            0            0 
  192000    1485.9953    308.94334    335.02753    10.129915     10.32714    20.457055    27.717677  -0.21237564    2.0017033    1.7893276    3.3584875    3.8796014   0.98424851   0.31547446    8.5378119            0            0       11.958       11.294       11.003            0            0            0 
  193000    1485.9953    276.43867    -603.6541    9.0641229    10.028786    19.092909    6.0106875  -0.20919492    1.9929643    1.7837694    4.4300788    2.3871969    1.0236302   0.40411052    8.2450165            0            0       11.958       11.294       11.003            0            0            0 
  194000    1485.9953    373.42415   -138.89375    12.244171    7.8552493     20.09942    17.089354  -0.20977786    1.9950049    1.7852271    2.7736624    2.7562187   0.41419327   0.12594785    6.0700222            0            0       11.958       11.294       11.003            0            0            0 
  195000    1485.9953    320.21218   -589.23673    10.499409     11.41887    21.918278    9.1485059  -0.20895025    1.9753631    1.7664128    3.3856096    4.7758816     1.200195    0.2907705    9.6524567            0            0       11.958       11.294       11.003            0            0            0 
  196000    1485.9953    158.95595   -355.75173    5.2119923    7.2291368    12.441129    4.7313781  -0.21017491    2.0098646    1.7996897     2.175763    2.3989833   0.60248944   0.25221136    5.4294471            0            0       11.958       11.294       11.003            0            0            0 
  197000    1485.9953    286.09737    763.08489     9.380821    11.098017    20.478838    37.016199  -0.21432163    2.0180896    1.8037679    4.0572603    2.7698204    1.7812714    0.6858974    9.2942494            0            0       11.958       11.294       11.003            0            0            0 
  198000    1485.9953    304.50062   -921.34837    9.9842435    15.568239    25.552482    5.5852804  -0.21068211    2.0248207    1.8141386     5.340217    3.7758328    3.2614817    1.3765685      13.7541            0            0       11.958       11.294       11.003            0            0            0 
  199000    1485.9953    185.82648   -623.11911    6.0930478    14.159545    20.252592     6.748531  -0.21132399    2.0050719    1.7937479     4.624251    4.3361097    2.4938533    0.9115826    12.365797            0            0       11.958       11.294       11.003            0            0            0 
  200000    1485.9953    223.22795    309.82356    7.3194014    10.503055    17.822456    24.536865  -0.21297618    2.0075126    1.7945364     4.337328    2.1893071    1.5525758   0.62930763    8.7085186            0            0       11.958       11.294       11.003            0            0            0 
  201000    1485.9953    292.10808   -500.61578    9.5779056    9.3678669    18.945772    8.0965687  -0.20954569    1.9957285    1.7861828    2.5678987    3.6665058      1.13387   0.21340956     7.581684            0            0       11.958       11.294       11.003            0            0            0 
  202000    1485.9953    258.14516    519.71767    8.4642986    12.788482     21.25278    32.515955  -0.21429105    2.0021864    1.7878954    3.8382288    3.2944003     2.768196    1.0997611    11.000586            0            0       11.958       11.294       11.003            0            0            0 
  203000    1485.9953    259.83151   -875.32622    8.5195922    13.083739    21.603331    2.6335085   -0.2103499    2.0110504    1.8007005    2.7686444    3.3778811    3.7673457    1.3691673    11.283039            0            0       11.958       11.294       11.003            0            0            0 
  204000    1485.9953    369.09101    646.42759    12.102092     7.390614    19.492706    33.501902  -0.21289329     2.012291    1.7993977    2.0985951    1.6796267    1.3821266    0.4308678    5.5912162            0            0       11.958       11.294       11.003            0            0            0 
  205000    1485.9953     263.9334   -251.07289    8.6540887     8.108283    16.762372    11.321191  -0.21003429    1.9943543      1.78432    2.2476475    2.0908233    1.3886113   0.59688093     6.323963            0            0       11.958       11.294       11.003            0            0            0 
  206000    1485.9953    285.67075   -729.72164    9.3668328    11.008885    20.375718    4.5613965  -0.21040289    2.0130303    1.8026274    2.3699915    3.7861839    2.0735676   0.97651477    9.2062578            0            0       11.958       11.294       11.003            0            0            0 
  207000    1485.9953    311.51536    592.80674    10.214249    10.517509    20.731758    33.578899  -0.21373745    2.0151973    1.8014598    1.5545866    4.1981074    2.0830603   0.88029496    8.7160492            0            0       11.958       11.294       11.003            0            0            0 
  208000    1485.9953      247.863   -1059.5557    8.1271579    7.0619398    15.189098   -7.7732936  -0.20716122    1.9849453    1.7777841    2.2341487    1.0728169    1.3659235   0.61126668    5.2841557            0            0       11.958       11.294       11.003            0            0            0 
  209000    1485.9953    292.80857    469.65221    9.6008741    8.3013249    17.902199    28.080369  -0.21328408    2.0136762    1.8003921    2.1057853    2.0254443     1.571732   0.79797131    6.5009328            0            0       11.958       11.294       11.003            0            0            0 
  210000    1485.9953    442.43093    1394.1879    14.506828    9.5442453    24.051073     54.26552  -0.21615429    2.0416262    1.8254719    4.5167086    2.0741082   0.96756123   0.16039535    7.7187733            0            0       11.958       11.294       11.003            0            0            0 
  211000    1485.9953     465.4111   -630.28293    15.260323    7.1885593    22.448882    8.7895684  -0.20752107    1.9808437    1.7733226    3.0580632    1.3225996   0.78958483   0.24498905    5.4152367            0            0       11.958       11.294       11.003            0            0            0 
  212000    1485.9953     249.7337   -568.11967     8.188496    10.590258    18.778754    6.4666253   -0.2090858    1.9781873    1.7691015    5.0727462     1.974686    1.1589799   0.61474476    8.8211569            0            0       11.958       11.294       11.003            0            0            0 
  213000    1485.9953    323.37117    -500.9256    10.602988    7.5574935    18.160482    7.3045637   -0.2097026    2.0030206     1.793318    2.8148232    1.2490502    1.1402652   0.56003677    5.7641754            0            0       11.958       11.294       11.003            0            0            0 
  214000    1485.9953    393.57428    1021.3948    12.904872    9.3627068    22.267579    44.402959  -0.21546137    2.0332427    1.8177813    2.8421826    1.5875681    2.1456611   0.96951374    7.5449255            0            0       11.958       11.294       11.003            0            0            0 
  215000    1485.9953    273.86983    456.49615    8.9798934      7.70272    16.682613    26.575669  -0.21306585    2.0175025    1.8044366    2.3438916    1.2473749      1.65933   0.64768693    5.8982834            0            0       11.958       11.294       11.003            0            0            0 
  216000    1485.9953    291.00759   -766.55896    9.5418219    8.8110228    18.352845    1.7401952  -0.20923683    2.0033764    1.7941396     2.356923    1.2380108    2.6707019   0.75124754    7.0168832            0            0       11.958       11.294       11.003            0            0            0 
  217000    1485.9953    357.34917   -688.21328     11.71709    13.602468    25.319558    10.404794  -0.20970087    1.9802842    1.7705833    5.2385313    2.7896074    2.6490283     1.154718    11.831885            0            0       11.958       11.294       11.003            0            0            0 
  218000    1485.9953    355.26494    216.53976     11.64875    10.433194    22.081945    26.774733   -0.2131484    2.0359595    1.8228111    3.4987235    2.0730077    2.0349441    1.0037077    8.6103831            0            0       11.958       11.294       11.003            0            0            0 
  219000    1485.9953    258.28348    595.15172     8.468834    8.7844646    17.253299    30.151259   -0.2146152    2.0364813    1.8218661    2.0202636    1.8010275    2.2287185   0.91258893    6.9625985            0            0       11.958       11.294       11.003            0            0            0 
  220000    1485.9953    312.48333    554.12398    10.245988    12.386802     22.63279    34.641609   -0.2148353     2.028459    1.8136237    4.0372218    2.5695503    2.7598515     1.206555    10.573179            0            0       11.958       11.294       11.003            0            0            0 
  221000    1485.9953    278.30008   -1590.6645    9.1251563    14.815212    23.940368   -10.532065  -0.20761807    2.0008806    1.7932626    4.3469908    4.4537106    3.4004262   0.82082139    13.021949            0            0       11.958       11.294       11.003            0            0            0 
  222000    1485.9953    234.92041   -176.87991    7.7027843    11.626154    19.328939    15.495647  -0.21122735    1.9930611    1.7818337    4.2569382    2.1656316    2.4370833   0.98466757    9.8443207            0            0       11.958       11.294       11.003            0            0            0 
  223000    1485.9953     247.3884    792.17146     8.111596    9.0896394    17.201235    34.368952  -0.21516414    2.0373636    1.8221995     3.636664    2.1410101    1.1192883   0.37047757      7.26744            0            0       11.958       11.294       11.003            0            0            0 
  224000    1485.9953    229.59619   -851.63749    7.5282091    9.0316305     16.55984   -1.8966078  -0.20795672    1.9828003    1.7748436     3.342162    2.7805887   0.95637416     0.177662    7.2567868            0            0       11.958       11.294       11.003            0            0            0 
  225000    1485.9953    317.04842    150.80862    10.395672    8.8135487    19.209221    22.477503   -0.2107197    1.9789859    1.7682662    3.2141544    2.9836646   0.71465593   0.13280756    7.0452825            0            0       11.958       11.294       11.003            0            0            0 
  226000    1485.9953    413.55524   -559.40297    13.560026    11.743089    25.303115    13.179892  -0.21060026    2.0214876    1.8108874    4.2912088    3.2560416    1.5925689   0.79238268     9.932202            0            0       11.958       11.294       11.003            0            0            0 
  227000    1485.9953    249.80645    587.09924    8.1908813     13.82572    22.016601     34.74005  -0.21512951    2.0294006     1.814271     3.624819    3.8733553    3.3952746    1.1179997    12.011449            0            0       11.958       11.294       11.003            0            0            0 
  228000    1485.9953    289.61019    -728.8726    9.4960025    11.590016    21.086019    5.2900978  -0.21047572    2.0073041    1.7968283    2.5498032    3.9149622    2.5475631   0.78085966    9.7931882            0            0       11.958       11.294       11.003            0            0            0 
  229000    1485.9953    269.85612    197.08599    8.8482883    9.0806355    17.928924    22.200116  -0.21257276    2.0100775    1.7975047    2.4687291    3.0216465     1.278463   0.51429226    7.2831307            0            0       11.958       11.294       11.003            0            0            0 
  230000    1485.9953    238.02436    1136.0567    7.8045593    7.6700864    15.474646    40.094946  -0.21533062    2.0227775    1.8074469    2.6606105    1.7921281    1.2508689     0.159032    5.8626395            0            0       11.958       11.294       11.003            0            0            0 
  231000    1485.9953    285.40396   -1440.7879    9.3580849    12.261982    21.620067   -9.6042804  -0.20763858    1.9905821    1.7829436    2.0146841     5.717659    1.9245991    0.8220966    10.479039            0            0       11.958       11.294       11.003            0            0            0 
  232000    1485.9953    210.16087     1018.332    6.8909458    13.033363    19.924308    41.993313  -0.21691709    2.0288705    1.8119534    3.3165616    4.7399946     2.118016    1.0468371    11.221409            0            0       11.958       11.294       11.003            0            0            0 
  233000    1485.9953    193.49837   -755.92978    6.3446008    9.8923867    16.236987  -0.14530929  -0.20960948    2.0078016    1.7981921    2.5508386    2.5409942    2.3514606   0.65090107    8.0941945            0            0       11.958       11.294       11.003            0            0            0 
  234000    1485.9953    289.07679   -272.58203     9.478513     9.209665    18.688178    12.780857  -0.21031201    1.9955614    1.7852494    4.0684921    1.9849511    1.0548635   0.31610902    7.4244156            0            0       11.958       11.294       11.003            0            0            0 
  235000    1485.9953     385.8291    665.31506    12.650916    9.6806157    22.331532    36.750052  -0.21295169    1.9933472    1.7803955    2.3519728    3.8243132    1.1111481   0.61278613    7.9002202            0            0       11.958       11.294       11.003            0            0            0 
  236000    1485.9953    330.95393   -1177.2647    10.851619    6.6417346    17.493353   -8.0199939  -0.20628412      1.97601    1.7697259    2.1400993    2.1505487   0.53369887  0.047661803    4.8720087            0            0       11.958       11.294       11.003            0            0            0 
  237000    1485.9953    332.64456    1669.2859    10.907053    7.7051543    18.612207    54.788501  -0.21667219    2.0217893    1.8051171    3.3724937    1.2499066    1.0661494   0.21148751    5.9000372            0            0       11.958       11.294       11.003            0            0            0 
  238000    1485.9953    415.66746   -79.873559    13.629283    7.2748717    20.904155    19.173157  -0.21007577    1.9944679    1.7843922    1.5697213      2.80336   0.83307221   0.28432596    5.4904795            0            0       11.958       11.294       11.003            0            0            0 
  239000    1485.9953     328.5089   -336.41341    10.771449    12.103356    22.874805    15.584149  -0.21156766    2.0121844    1.8006167    4.3360248    3.1630877    2.0841199   0.71950699    10.302739            0            0       11.958       11.294       11.003            0            0            0 
  240000    1485.9953    275.86821    480.85773     9.045418    9.8105595    18.855977     29.27699  -0.21333829    2.0002018    1.7868635    2.7969267    1.8324499    2.5961619   0.79815747     8.023696            0            0       11.958       11.294       11.003            0            0            0 
  241000    1485.9953    298.46348    324.35782    9.7862924    10.443801    20.230093    27.259484  -0.21403637    2.0456679    1.8316315    4.3569762    1.5947082    1.8215887   0.83889622    8.6121693            0            0       11.958       11.294       11.003            0            0            0 
  242000    1485.9953    151.53223    706.51676    4.9685768    5.4568361    10.425413    25.736845  -0.21317494    2.0051686    1.7919937    1.1039465    1.6759979   0.76584692   0.11905109    3.6648424            0            0       11.958       11.294       11.003            0            0            0 
  243000    1485.9953    321.48945   -1329.2557    10.541289    9.5546955    20.095984   -8.7112709  -0.20556581     1.966307    1.7607412     2.740766    3.4682254    1.0376927   0.54727013    7.7939542            0            0       11.958       11.294       11.003            0            0            0 
  244000    1485.9953    260.86123   -204.42264    8.5533556     10.09331    18.646666    14.216476  -0.21134315    2.0154698    1.8041266    2.3502295    3.8427244    1.5625508   0.53367916    8.2891838            0            0       11.958       11.294       11.003            0            0            0 
  245000    1485.9953    262.38761    731.86992     8.603404    9.5323046    18.135709    33.996587  -0.21387451    2.0112722    1.7973977    2.2098049    3.8652883    1.0867509   0.57306282    7.7349069            0            0       11.958       11.294       11.003            0            0            0 
  246000    1485.9953    278.50151   -2717.5408    9.1317612    12.131702    21.263463   -37.630314  -0.20154441    1.9551814     1.753637    6.5394168     2.680656   0.82547253   0.33251961    10.378065            0            0       11.958       11.294       11.003            0            0            0 
  247000    1485.9953    202.06287   -152.50985    6.6254213    8.6109044    15.236326    11.931175  -0.21009719    1.9760574    1.7659602    2.6340406    3.6025001   0.38068497   0.22771848    6.8449441            0            0       11.958       11.294       11.003            0            0            0 
  248000    1485.9953    283.24507    647.43541    9.2872974    7.8188768    17.106174    31.137212  -0.21340013    2.0199873    1.8065872    2.8286509    2.5665688   0.51088246   0.10618737    6.0122896            0            0       11.958       11.294       11.003            0            0            0 
  249000    1485.9953    255.19817   -1274.8323    8.3676699    13.306414    21.674084   -5.9537216  -0.20838213     1.997729    1.7893469     3.696493    4.0352747    2.7144111    1.0708887    11.517068            0            0       11.958       11.294       11.003            0            0            0 
  250000    1485.9953    415.08707    1076.5145    13.610253    11.134799    24.745052     48.07497  -0.21558788    2.0197134    1.8041255    2.6669514    2.5985182    3.0029618    1.0622422    9.3306737            0            0       11.958       11.294       11.003            0            0            0 
[...]
 1939000    1485.9953    253.01023    -1220.261    8.2959298    5.8142003     14.11013   -12.335022   -0.2060287    1.9706914    1.7646627    1.6619515     1.730091     0.437236   0.22025918    4.0495376            0            0       11.958       11.294       11.003            0            0            0 
 1940000    1485.9953    343.18345    1441.6354    11.252612    9.5764798    20.829091    52.071806  -0.21640275    2.0408316    1.8244289    5.0057318    1.7169411    0.7770391    0.2523389     7.752051            0            0       11.958       11.294       11.003            0            0            0 
 1941000    1485.9953    307.81129   -694.92652    10.092797    9.6586548    19.751452    4.6912002  -0.20880275    2.0021733    1.7933706    4.3859053    2.7774988   0.54478404   0.15709615    7.8652843            0            0       11.958       11.294       11.003            0            0            0 
 1942000    1485.9953    308.19618   -556.88203    10.105417     8.670952    18.776369    6.7077788   -0.2076948    1.9593566    1.7516618     4.465653    1.7080991   0.61995311   0.12558503    6.9192902            0            0       11.958       11.294       11.003            0            0            0 
 1943000    1485.9953     315.8518    111.45645    10.356436    8.1414924    18.497929    20.913381  -0.21222161    2.0195031    1.8072815      2.57786    2.0411699     1.456725    0.2584561    6.3342109            0            0       11.958       11.294       11.003            0            0            0 
 1944000    1485.9953    381.91714    1244.6234    12.522647    8.7167781    21.239425    48.212553  -0.21567872    2.0182483    1.8025696    2.6131879    2.3098642    1.4524847   0.53867164    6.9142084            0            0       11.958       11.294       11.003            0            0            0 
 1945000    1485.9953    427.32836   -1845.4756    14.011631    10.753239     24.76487   -15.229757  -0.20486668    1.9488266    1.7439599    3.6469466      2.80723    2.2848476   0.27025448    9.0092787            0            0       11.958       11.294       11.003            0            0            0 
 1946000    1485.9953    285.41603    1071.8794    9.3584807    10.276398    19.634879    42.864347  -0.21580344    2.0049519    1.7891484    2.0786037    4.1702501    1.8675855   0.37081075      8.48725            0            0       11.958       11.294       11.003            0            0            0 
 1947000    1485.9953     230.1145    80.098527    7.5452037    9.5759531    17.121157    18.857029  -0.21291065    2.0188757     1.805965    3.3197497    2.0849194    2.2550106   0.11030841    7.7699881            0            0       11.958       11.294       11.003            0            0            0 
 1948000    1485.9953    198.28334   -429.97116    6.5014947    9.7269657     16.22846    6.9102468   -0.2096388     1.969329    1.7596902    4.2899457    1.8974302    1.2535569   0.52634264    7.9672755            0            0       11.958       11.294       11.003            0            0            0 
 1949000    1485.9953    252.94805   -547.81934     8.293891    11.663666    19.957557    8.0853706  -0.21090647    2.0228015     1.811895    3.6232478    4.5288277     1.439727   0.25996834    9.8517708            0            0       11.958       11.294       11.003            0            0            0 
 1950000    1485.9953     240.8767    762.20022    7.8980846    9.4504088    17.348493    33.866681  -0.21378246    2.0069554    1.7931729    4.3201068    2.2024606   0.81873883   0.31592959    7.6572358            0            0       11.958       11.294       11.003            0            0            0 
 1951000    1485.9953    286.03518   -1435.3727     9.378782    9.5640618    18.942844   -12.164148  -0.20661863    1.9775739    1.7709552    4.2110979    1.8352952    1.4263669   0.32034652    7.7931065            0            0       11.958       11.294       11.003            0            0            0 
 1952000    1485.9953    216.15328    1069.8307    7.0874304    11.074192    18.161622     41.34669  -0.21594292    2.0016381    1.7856952    3.1422421    3.3655618    2.2367309   0.54396151    9.2884963            0            0       11.958       11.294       11.003            0            0            0 
 1953000    1485.9953    342.60157   -762.66927    11.233532    12.325529    23.559061    7.0307079   -0.2111776     1.996689    1.7855114     1.505826    5.5999338      2.73392    0.7003379    10.540018            0            0       11.958       11.294       11.003            0            0            0 
 1954000    1485.9953    304.97003    484.95025    9.9996351    12.648623    22.648258    33.157963  -0.21413888    1.9779906    1.7638517    3.5013001    3.6693168    3.0320418   0.68211279    10.884771            0            0       11.958       11.294       11.003            0            0            0 
 1955000    1485.9953    172.68839    -522.2178    5.6622643    10.979669    16.641933    5.3245762  -0.21154708    2.0101302    1.7985831    4.7946328     1.734474    2.3160122   0.33596665    9.1810855            0            0       11.958       11.294       11.003            0            0            0 
 1956000    1485.9953    236.07494    1783.9863    7.7406401    10.914505    18.655145    57.317192  -0.21853187    2.0212282    1.8026963    4.0283647    2.8217837    1.9752149    0.2864454    9.1118087            0            0       11.958       11.294       11.003            0            0            0 
 1957000    1485.9953    422.96891   -1073.2221     13.86869    8.2453625    22.114052   -1.1445134  -0.20794157    1.9848508    1.7769092    1.3290826    2.7331757    2.0608844   0.34531062    6.4684533            0            0       11.958       11.294       11.003            0            0            0 
 1958000    1485.9953    361.35277     1388.043    11.848364    11.077386    22.925749    53.007025  -0.21636528     1.996111    1.7797457    3.2828339    3.3919735    2.1102274   0.51260524      9.29764            0            0       11.958       11.294       11.003            0            0            0 
 1959000    1485.9953    195.10748   -111.40588    6.3973616    12.801887    19.199249    16.784892  -0.21351332    2.0260157    1.8125024    4.9536954     3.945864    1.7128836   0.37694183    10.989385            0            0       11.958       11.294       11.003            0            0            0 
 1960000    1485.9953    224.88491    513.11496    7.3737312    12.221774    19.595505    30.715588  -0.21338545     1.981269    1.7678835    5.7324939      1.48386    2.6911144   0.54642206     10.45389            0            0       11.958       11.294       11.003            0            0            0 
 1961000    1485.9953    380.62367   -1658.8362    12.480235    9.9978259    22.478061   -13.471769  -0.20608018    1.9800904    1.7740103      3.54878    2.6444971    1.7229096   0.30762896    8.2238157            0            0       11.958       11.294       11.003            0            0            0 
 1962000    1485.9953    288.09365    1587.5528    9.4462768    9.3153143    18.761591    53.166587  -0.21738129    2.0213644    1.8039831    1.6174584    3.2529319    2.4309017   0.21003926    7.5113312            0            0       11.958       11.294       11.003            0            0            0 
 1963000    1485.9953     304.1515   -859.80055    9.9727963     5.829481    15.802277   -2.8310775  -0.20784032    2.0068753    1.7990349    1.7667336    1.8509186   0.28759787   0.12519602    4.0304461            0            0       11.958       11.294       11.003            0            0            0 
 1964000    1485.9953    374.25371    692.84156    12.271372    6.1213567    18.392728    33.407795  -0.21186574    1.9895412    1.7776755    2.4422626    1.2366451   0.53603026   0.12874326    4.3436812            0            0       11.958       11.294       11.003            0            0            0 
 1965000    1485.9953    421.62807   -864.47525    13.824725    10.642008    24.466733    5.7320694  -0.20893166    1.9958228    1.7868912    4.9460284    1.6309054    2.1501551   0.12802795    8.8551169            0            0       11.958       11.294       11.003            0            0            0 
 1966000    1485.9953    213.99692    1313.0297     7.016726    8.8423968    15.859123    44.314731  -0.21583795    2.0051787    1.7893407    4.2516145    1.4392348    1.0089113    0.3532955     7.053056            0            0       11.958       11.294       11.003            0            0            0 
 1967000    1485.9953    258.85908   -830.01675    8.4877073    8.3357293    16.823437   -1.1644521  -0.20902776    1.9968622    1.7878344    3.6713385   0.79283302    1.7531176   0.33060575    6.5478949            0            0       11.958       11.294       11.003            0            0            0 
 1968000    1485.9953    349.34089    785.53722    11.454507    10.835205    22.289712    39.313653   -0.2135572    1.9925851    1.7790279    4.0179914    3.8594744   0.98362809     0.195083    9.0561769            0            0       11.958       11.294       11.003            0            0            0 
 1969000    1485.9953    385.74272   -1309.8845    12.648083    11.012948    23.661032   -4.7264164  -0.20739547    2.0108864    1.8034909     2.760672    4.3546514    1.7414457   0.35268806    9.2094573            0            0       11.958       11.294       11.003            0            0            0 
 1970000    1485.9953     264.0932    330.09847    8.6593282    8.9747731    17.634101    24.787902  -0.21211894    1.9920865    1.7799676    3.1500137    3.1773443   0.61607282   0.25137469    7.1948055            0            0       11.958       11.294       11.003            0            0            0 
 1971000    1485.9953    273.68997   -1523.7474    8.9739961     11.82923    20.803226   -12.218998  -0.20736948     1.998793    1.7914236    5.6455917    1.3299582    2.4511523   0.61110444    10.037807            0            0       11.958       11.294       11.003            0            0            0 
 1972000    1485.9953    279.19433    1457.3225    9.1544781    13.622325    22.776803    54.359485  -0.21806015    2.0145328    1.7964727    4.8359979    3.6663825    2.8666549   0.45681678    11.825852            0            0       11.958       11.294       11.003            0            0            0 
 1973000    1485.9953    300.86517   -267.40521    9.8650413    10.884338     20.74938    14.954249  -0.21224887    2.0078506    1.7956017    3.3920942    2.9140827    2.3074348   0.47512489    9.0887365            0            0       11.958       11.294       11.003            0            0            0 
 1974000    1485.9953    255.46808    294.47393      8.37652    6.7890735    15.165594    21.547349  -0.21130649    1.9886018    1.7772954     2.226915    2.0536888   0.53561409    0.1955602    5.0117781            0            0       11.958       11.294       11.003            0            0            0 
 1975000    1485.9953    459.09147   -949.48273    15.053109    7.3342082    22.387317    1.8103958  -0.20683809    1.9839383    1.7771002    3.1213463    1.5119727   0.74221423    0.1815748     5.557108            0            0       11.958       11.294       11.003            0            0            0 
 1976000    1485.9953     429.9515     1278.871    14.097641    11.468766    25.566407    53.281739  -0.21647875    2.0284115    1.8119328    3.9949252    3.8170134    1.4739353   0.37095899    9.6568329            0            0       11.958       11.294       11.003            0            0            0 
 1977000    1485.9953    248.61205   -904.52305    8.1517184    10.774711    18.926429  -0.67613876  -0.20914183    1.9933806    1.7842388    3.9825106    3.4744783    1.2465652   0.28691823    8.9904723            0            0       11.958       11.294       11.003            0            0            0 
 1978000    1485.9953    152.93084    159.61719    5.0144356    11.135304     16.14974    19.608918  -0.21327965    1.9921935    1.7789138    3.2429371     2.955624    2.8231756    0.3346534    9.3563901            0            0       11.958       11.294       11.003            0            0            0 
 1979000    1485.9953    269.86892    65.783593    8.8487079    12.669193      21.5179    22.943544  -0.21381977    2.0157342    1.8019144    3.1079499    5.2539416    2.2291206   0.27626609    10.867278            0            0       11.958       11.294       11.003            0            0            0 
 1980000    1485.9953    418.34637    374.41538    13.717122    9.2599317    22.977053    31.091278   -0.2123527    1.9956161    1.7832634    2.1290681    3.6325532    1.5234153   0.19163173    7.4766683            0            0       11.958       11.294       11.003            0            0            0 
 1981000    1485.9953    253.26607   -1054.6772    8.3043187    9.0321861    17.336505   -5.5201621  -0.20737445    1.9845696    1.7771951     3.852017    2.6536256   0.54974474   0.19960358    7.2549909            0            0       11.958       11.294       11.003            0            0            0 
 1982000    1485.9953    223.05561    103.80813    7.3137504    8.3968485    15.710599    17.960299   -0.2114612    2.0024468    1.7909856    3.5269945     2.577738   0.36624574   0.13488469    6.6058629            0            0       11.958       11.294       11.003            0            0            0 
 1983000    1485.9953    370.44028   -147.65234    12.146333    8.2765617    20.422895    17.223015  -0.21030426     1.994479    1.7841747    3.2867502    2.1128693   0.85476668    0.2380007    6.4923869            0            0       11.958       11.294       11.003            0            0            0 
 1984000    1485.9953    320.47147   -143.92362     10.50791    8.1204403    18.628351    15.509279  -0.21059007    1.9995379    1.7889478    2.8274422    1.6901149    1.5738825   0.24005285    6.3314925            0            0       11.958       11.294       11.003            0            0            0 
 1985000    1485.9953    282.22291    409.60864    9.2537818    8.8621857    18.115967     26.99289  -0.21281661    2.0008788    1.7880622      1.94246    3.1701017     1.746973   0.21458879    7.0741235            0            0       11.958       11.294       11.003            0            0            0 
 1986000    1485.9953    239.97254   -550.73822    7.8684382     9.136525    17.004963    5.0695199  -0.20952126     1.983298    1.7737767    3.7950771    1.7611495    1.5708028   0.23571883    7.3627483            0            0       11.958       11.294       11.003            0            0            0 
 1987000    1485.9953     291.4031     1055.265    9.5547901    10.227903    19.782693    42.652099   -0.2152604    2.0142875    1.7990271    5.2246941    1.4401379    1.5691641   0.19488017    8.4288761            0            0       11.958       11.294       11.003            0            0            0 
 1988000    1485.9953     334.9012   -171.18487    10.981045    8.8221978    19.803243    16.093373  -0.21097801    2.0067078    1.7957298    1.3522839    4.1336562      1.41583   0.12469779     7.026468            0            0       11.958       11.294       11.003            0            0            0 
 1989000    1485.9953    327.75552    95.940027    10.746746    7.8150602    18.561807    20.640992  -0.21065958    1.9812396      1.77058    2.3148747    1.6962538    1.6473462   0.38600538    6.0444801            0            0       11.958       11.294       11.003            0            0            0 
 1990000    1485.9953    222.30041   -916.16199    7.2889884    8.3857461    15.674735   -4.1800695  -0.20851108    1.9968564    1.7883453    4.0367662    1.7015216   0.61889293   0.24022009    6.5974008            0            0       11.958       11.294       11.003            0            0            0 
 1991000    1485.9953    362.71542    1070.8997    11.893043    10.225451    22.118495    45.326732  -0.21411229    2.0046727    1.7905605    5.0533799    2.3285986   0.94712539   0.10578703     8.434891            0            0       11.958       11.294       11.003            0            0            0 
 1992000    1485.9953    405.10491   -1114.2721    13.282949    9.3454067    22.628355   -1.5198356  -0.20775566    2.0087435    1.8009879    1.8789364    4.8424126   0.61118945   0.21188038    7.5444188            0            0       11.958       11.294       11.003            0            0            0 
 1993000    1485.9953    315.15037    876.07318    10.333437    7.0874422     17.42088     36.40689  -0.21296949    1.9896362    1.7766667    3.0296052    1.5715672   0.56676192   0.14284117    5.3107755            0            0       11.958       11.294       11.003            0            0            0 
 1994000    1485.9953    277.03287   -1352.6102    9.0836061    11.777224     20.86083   -8.4525555  -0.20805146    1.9942983    1.7862468    4.7919492    2.7840274    1.9013563   0.51364453    9.9909775            0            0       11.958       11.294       11.003            0            0            0 
 1995000    1485.9953      298.179    1559.3504    9.7769644    11.645776    21.422741    55.216543   -0.2180744    2.0173226    1.7992482    3.0912296    2.6851555    3.4022223   0.66792075    9.8465282            0            0       11.958       11.294       11.003            0            0            0 
 1996000    1485.9953    202.55966    -1350.008    6.6417104    8.8725747    15.514285   -13.742707  -0.20795485    1.9891331    1.7811782    1.5146384    2.9757391    2.1354262    0.4655927    7.0913964            0            0       11.958       11.294       11.003            0            0            0 
 1997000    1485.9953    262.33076    1084.8632    8.6015397    12.475059    21.076599    44.587448   -0.2165652    2.0034563    1.7868911    3.6544354     3.321002    2.8058648   0.90686613    10.688168            0            0       11.958       11.294       11.003            0            0            0 
 1998000    1485.9953    319.86855   -1195.8469    10.488141    10.897334    21.385475   -4.5305803   -0.2086655    2.0056122    1.7969467    3.6014907    2.4860353    2.4349529   0.57790875    9.1003877            0            0       11.958       11.294       11.003            0            0            0 
 1999000    1485.9953    189.00021    1453.1759     6.197111    8.8739687     15.07108    46.563897  -0.21689348    2.0133174    1.7964239    2.2378701    3.0490467    1.5142445    0.2763836    7.0775448            0            0       11.958       11.294       11.003            0            0            0 
 2000000    1485.9953    248.59728    -1732.616     8.151234    9.8994533    18.050687   -19.498077  -0.20550698      1.98312     1.777613    4.0414071    2.9241586      0.84976   0.30651457    8.1218403            0            0       11.958       11.294       11.003            0            0            0 
Loop time of 24.5269 on 1 procs for 2000000 steps with 12 atoms

Pair  time (%) = 1.67331 (6.82236)
Bond  time (%) = 18.9529 (77.2739)
Neigh time (%) = 0.139336 (0.568095)
Comm  time (%) = 0.435716 (1.77648)
Outpt time (%) = 0.185823 (0.757632)
Other time (%) = 3.13983 (12.8016)

Nlocal:    12 ave 12 max 12 min
Histogram: 1 0 0 0 0 0 0 0 0 0
Nghost:    0 ave 0 max 0 min
Histogram: 1 0 0 0 0 0 0 0 0 0
Neighs:    15 ave 15 max 15 min
Histogram: 1 0 0 0 0 0 0 0 0 0

Total # of neighbors = 15
Ave neighs/atom = 1.25
Ave special neighs/atom = 8.5
Neighbor list builds = 21630
Dangerous builds = 0


write_restart   restart.${NAME}
write_restart   restart.mol
