ITEM: TIMESTEP
0
ITEM: NUMBER OF ATOMS
12
ITEM: BOX BOUNDS
-5.979 5.979
-5.647 5.647
-5.5015 5.5015
ITEM: ATOMS id type x y z vx vy vz mol 
1 1 -0.697 -1.208 0.0005 0.00394164 0.00153844 -0.000307282 1 
2 1 0.698 -1.208 0.0015 -0.00111302 -3.68983e-05 -0.00821737 1 
3 1 1.395 0 0.0005 -0.00481544 -0.00309812 -0.00129574 1 
4 1 0.698 1.207 -0.0005 -0.0030317 0.000855347 4.28028e-05 1 
5 1 -0.697 1.207 -0.0005 -0.000620688 0.00140886 0.00385403 1 
6 1 -1.394 0 -0.0005 -0.000186886 -0.00672004 -0.00198207 1 
7 2 -1.239 -2.147 0.0005 -0.0041185 -2.52654e-06 0.0308456 1 
8 2 1.24 -2.147 0.0015 0.0185914 0.000548093 0.00526532 1 
9 2 2.479 -0.001 0.0005 0.011969 0.0118341 0.0130358 1 
10 2 1.24 2.146 -0.0005 0.0198529 -0.000944389 0.026011 1 
11 2 -1.239 2.147 -0.0015 -0.00455936 0.0323757 0.0175361 1 
12 2 -2.479 0 -0.0005 0.0276807 0.0283017 0.00149931 1 
ITEM: TIMESTEP
2000
ITEM: NUMBER OF ATOMS
12
ITEM: BOX BOUNDS
-5.979 5.979
-5.647 5.647
-5.5015 5.5015
ITEM: ATOMS id type x y z vx vy vz mol 
1 1 -1.11712 -0.818636 0.0786277 0.00160808 -0.00390548 0.00139019 1 
2 1 -0.61352 -0.393078 -1.17191 -0.00151008 0.00657462 -0.000159617 1 
3 1 0.485875 0.48755 -1.26193 -0.00517269 0.00469298 -0.000350825 1 
4 1 1.08269 0.856351 -0.0740827 -0.00208612 0.00590256 0.00397364 1 
5 1 0.637605 0.35793 1.16854 0.000433496 -0.00230062 -0.00359157 1 
6 1 -0.451004 -0.490348 1.26069 -0.00390872 -0.00636765 0.000980858 1 
7 2 -2.02094 -1.42814 0.122839 0.00848512 -0.0206534 -0.00413497 1 
8 2 -1.15992 -0.717033 -2.07583 -0.000943788 -0.00350231 -0.00251141 1 
9 2 0.743263 0.803078 -2.23021 0.0127019 -0.00538734 0.00725063 1 
10 2 1.87667 1.57484 -0.10223 0.0292811 -0.0311361 -0.00117567 1 
11 2 1.12205 0.662251 2.0911 0.039937 -0.00698554 0.0110618 1 
12 2 -0.815572 -0.918069 2.20698 0.0372635 0.0129 -0.0372111 1 
ITEM: TIMESTEP
4000
ITEM: NUMBER OF ATOMS
12
ITEM: BOX BOUNDS
-5.979 5.979
-5.647 5.647
-5.5015 5.5015
ITEM: ATOMS id type x y z vx vy vz mol 
1 1 0.247667 -0.440876 -1.29797 0.00181355 0.00474698 -0.000696747 1 
2 1 -1.06056 -0.276862 -0.86572 -0.0059124 0.00254466 0.0039614 1 
3 1 -1.29873 0.117088 0.464325 -0.00150118 -0.00198975 0.00383085 1 
4 1 -0.266471 0.402989 1.29963 0.0016011 -0.0104909 -0.00224539 1 
5 1 1.0583 0.327375 0.856267 -0.00322918 -0.0010114 -0.00154151 1 
6 1 1.32328 -0.0775945 -0.457072 0.00918785 -0.000156984 -0.00124456 1 
7 2 0.40503 -1.00577 -2.26974 -0.00250801 0.0109682 -0.0102789 1 
8 2 -1.87269 -0.639289 -1.50046 -0.00155987 0.00265517 -0.00772526 1 
9 2 -2.32373 0.100591 0.751244 -0.00582696 0.0165062 -0.00513501 1 
10 2 -0.449146 0.618856 2.3329 -0.00730498 0.000210186 -0.0062445 1 
11 2 1.88825 0.528387 1.53488 0.0217062 0.0147326 0.00787941 1 
12 2 2.3485 -0.249593 -0.830535 -0.027856 0.0306742 -0.00308804 1 
ITEM: TIMESTEP
6000
ITEM: NUMBER OF ATOMS
12
ITEM: BOX BOUNDS
-5.979 5.979
-5.647 5.647
-5.5015 5.5015
ITEM: ATOMS id type x y z vx vy vz mol 
1 1 0.701777 1.1805 -0.349241 -0.000374905 0.0043729 0.000631217 1 
2 1 -0.693944 1.11592 -0.432868 -0.00416832 0.000579046 0.00644723 1 
3 1 -1.37035 -0.0979091 -0.13935 -0.000694426 -0.00589634 0.00427222 1 
4 1 -0.707328 -1.17556 0.357079 0.00488174 -0.000527338 -0.00785265 1 
5 1 0.691032 -1.09832 0.456942 -0.00412079 0.00308271 -0.00521677 1 
6 1 1.36267 0.0829871 0.171937 0.00554148 -0.00564741 -0.000371549 1 
7 2 1.28178 2.0516 -0.785448 -0.000387393 -0.00787335 0.00154613 1 
8 2 -1.25565 1.94277 -0.868426 -0.00707034 0.0107686 0.0157775 1 
9 2 -2.36299 -0.12466 -0.387642 -0.00627703 0.0281481 0.01281 1 
10 2 -1.16635 -2.09744 0.520805 -0.00925366 0.0147819 -0.0209434 1 
11 2 1.28411 -1.98843 0.640655 0.0251198 -0.0147843 0.00516932 1 
12 2 2.44924 0.0996504 0.123489 -0.0148177 0.0170519 0.0105456 1 
ITEM: TIMESTEP
8000
ITEM: NUMBER OF ATOMS
12
ITEM: BOX BOUNDS
-5.979 5.979
-5.647 5.647
-5.5015 5.5015
ITEM: ATOMS id type x y z vx vy vz mol 
1 1 0.997446 0.967062 0.254142 0.00230282 0.00463393 0.00400779 1 
2 1 0.925236 -0.178453 1.01801 0.00446128 -0.00757531 -0.00155656 1 
3 1 -0.0728475 -1.13244 0.775504 -0.000709793 -0.00431362 -0.00599976 1 
4 1 -0.944744 -1.00851 -0.28914 0.00337899 0.00375442 -0.00376042 1 
5 1 -0.92396 0.180971 -1.0146 7.09591e-05 0.000259766 0.00628364 1 
6 1 0.0597923 1.14002 -0.774706 -0.0064746 -0.00124853 -0.00170681 1 
7 2 1.76595 1.79568 0.456686 -0.0285232 -0.000462727 0.0114699 1 
8 2 1.55351 -0.297409 1.89762 0.00942726 0.0254069 -0.0118751 1 
9 2 -0.232816 -1.92429 1.45553 0.00486661 0.0175851 0.0120642 1 
10 2 -1.70462 -1.73679 -0.482963 -0.00898952 0.00621926 -0.0101895 1 
11 2 -1.76941 0.403763 -1.66216 -0.0150166 0.0124557 0.00332766 1 
12 2 -0.0624545 2.10681 -1.28591 0.00213794 -0.00771516 0.0277551 1 
ITEM: TIMESTEP
10000
ITEM: NUMBER OF ATOMS
12
ITEM: BOX BOUNDS
-5.979 5.979
-5.647 5.647
-5.5015 5.5015
ITEM: ATOMS id type x y z vx vy vz mol 
1 1 -0.171998 0.809432 1.1189 0.0011103 0.002016 0.00714271 1 
2 1 1.08537 0.393938 0.745119 0.000908704 -0.000154404 -0.00149577 1 
3 1 1.29936 -0.392321 -0.381081 -0.00377821 0.00078625 -0.00279457 1 
4 1 0.19419 -0.76108 -1.16382 0.0023311 0.00481448 -0.00410083 1 
5 1 -1.10058 -0.401595 -0.737975 0.0024096 0.00121484 0.00188941 1 
6 1 -1.29745 0.383043 0.40503 0.000760014 -0.00212282 -0.00414289 1 
7 2 -0.330336 1.41171 2.06167 -0.00898187 -0.0367215 0.00286767 1 
8 2 1.9289 0.549133 1.437 -0.0169351 -0.00446802 0.00534715 1 
9 2 2.23943 -0.759825 -0.654468 -0.00963449 -0.0105817 0.00589022 1 
10 2 0.327164 -1.34886 -2.05195 0.00242441 0.00133211 -0.0126542 1 
11 2 -1.91437 -0.829873 -1.3173 -0.0200301 -0.0141341 0.012963 1 
12 2 -2.3191 0.577571 0.701753 0.00857841 -0.0135198 0.0273108 1 
ITEM: TIMESTEP
12000
ITEM: NUMBER OF ATOMS
12
ITEM: BOX BOUNDS
-5.979 5.979
-5.647 5.647
-5.5015 5.5015
ITEM: ATOMS id type x y z vx vy vz mol 
1 1 -0.502789 -1.24917 0.0716511 0.0024811 -0.00458751 -0.00250402 1 
2 1 0.897686 -1.10346 0.0790666 -0.000816952 0.000145168 -0.00360781 1 
3 1 1.40632 0.188307 0.0150463 0.0028035 -0.00105492 -0.000507112 1 
4 1 0.491104 1.2841 -0.0677897 0.000903222 0.00164355 0.0104433 1 
5 1 -0.919498 1.0811 -0.0972172 -0.00291921 -0.00376564 0.00713897 1 
6 1 -1.37453 -0.214217 -0.0249739 -0.00188014 0.00366514 0.000440591 1 
7 2 -0.917724 -2.2503 0.192111 0.00891059 0.0257866 -0.0260063 1 
8 2 1.64208 -1.94047 0.168039 0.00230148 0.00672556 -0.0408794 1 
9 2 2.41264 0.429893 0.0895557 -0.00549328 -0.00368371 -0.0366124 1 
10 2 0.879479 2.2677 -0.00149262 0.000871407 0.0159814 -0.00127754 1 
11 2 -1.5302 1.9683 -0.129246 -0.0165026 0.0182077 -0.0351604 1 
12 2 -2.42827 -0.341873 -0.0185172 0.00310275 -0.0159043 0.00406188 1 
ITEM: TIMESTEP
14000
ITEM: NUMBER OF ATOMS
12
ITEM: BOX BOUNDS
-5.979 5.979
-5.647 5.647
-5.5015 5.5015
ITEM: ATOMS id type x y z vx vy vz mol 
1 1 -1.11404 -0.771985 -0.139651 0.0014006 -0.00152825 -0.00242467 1 
2 1 -0.393389 -0.467258 -1.25452 -0.00324131 -0.00167229 -0.00168814 1 
3 1 0.74957 0.322219 -1.14272 -0.00534759 0.00337565 -0.00425458 1 
4 1 1.1014 0.83091 0.141534 0.00190485 -0.000708738 0.00183016 1 
5 1 0.372825 0.46398 1.26923 -0.00240505 -0.00426797 0.00527127 1 
6 1 -0.746156 -0.33381 1.1215 0.00553229 -0.00338896 -0.000667342 1 
7 2 -1.89486 -1.52569 -0.233658 0.0138968 0.0258273 -0.00630121 1 
8 2 -0.575694 -1.01929 -2.23043 0.00126302 0.0318364 0.000408876 1 
9 2 1.36196 0.537576 -1.96525 -0.0132611 0.0153643 0.00750755 1 
10 2 2.00874 1.35882 0.227098 0.0110327 -0.00244385 0.010279 1 
11 2 0.741098 0.730284 2.25663 0.00742019 0.0271006 0.00781992 1 
12 2 -1.24864 -0.63246 2.01274 0.00533883 -9.68005e-05 0.00332056 1 
ITEM: TIMESTEP
16000
ITEM: NUMBER OF ATOMS
12
ITEM: BOX BOUNDS
-5.979 5.979
-5.647 5.647
-5.5015 5.5015
ITEM: ATOMS id type x y z vx vy vz mol 
1 1 0.0923877 -0.914675 -1.03211 -0.0016166 0.00663742 -0.0012263 1 
2 1 -1.12772 -0.387612 -0.694322 0.000184845 -0.00168835 -0.00807219 1 
3 1 -1.24865 0.519399 0.322662 -0.00193176 -0.00693632 0.00554323 1 
4 1 -0.110956 0.836486 1.12042 -0.00217523 -0.00870079 0.00155532 1 
5 1 1.15473 0.411442 0.695304 0.00541334 -0.00689731 0.00269629 1 
6 1 1.23059 -0.521129 -0.357579 -0.00204949 0.00750667 -0.00611308 1 
7 2 0.230037 -1.51534 -1.89138 9.08685e-05 0.025294 0.0106955 1 
8 2 -2.00843 -0.57221 -1.37729 0.00239668 0.0241855 0.0268403 1 
9 2 -2.07265 1.10981 0.441408 0.0267711 0.00604278 0.0302595 1 
10 2 -0.210043 1.62672 1.79204 -0.000541509 0.0274333 -0.000918045 1 
11 2 2.01672 0.868182 1.08445 -0.000856696 0.0253921 0.00128833 1 
12 2 2.19682 -0.874711 -0.685175 -0.00194719 0.0117367 -0.00124395 1 
ITEM: TIMESTEP
18000
ITEM: NUMBER OF ATOMS
12
ITEM: BOX BOUNDS
-5.979 5.979
-5.647 5.647
-5.5015 5.5015
ITEM: ATOMS id type x y z vx vy vz mol 
1 1 0.421909 1.34948 0.148199 7.65314e-05 0.00195197 0.00140191 1 
2 1 -0.936353 0.977187 0.184575 0.000868421 0.000259436 0.00388716 1 
3 1 -1.35769 -0.328973 0.0301428 0.00214928 0.00216026 0.00105747 1 
4 1 -0.422956 -1.34416 -0.192145 -0.00121573 0.00244803 -0.00675255 1 
5 1 0.938363 -0.999859 -0.15108 -0.0014313 -0.000128307 -0.0047512 1 
6 1 1.362 0.346043 -0.044513 -0.00323489 0.00308555 -0.00332073 1 
7 2 0.707652 2.3553 0.284667 -0.00208839 -0.00604287 0.0182465 1 
8 2 -1.70765 1.78495 0.281513 -0.00993352 -0.0406178 0.0290102 1 
9 2 -2.34584 -0.600974 0.185295 0.0238129 -0.0135897 0.00923392 1 
10 2 -0.736938 -2.34725 -0.276054 0.0131524 -0.0182345 0.00645212 1 
11 2 1.63478 -1.76502 -0.15778 0.000497955 -0.0157024 0.0144206 1 
12 2 2.42295 0.550569 -0.00997997 0.00777303 -0.0223018 0.0236486 1 
ITEM: TIMESTEP
20000
ITEM: NUMBER OF ATOMS
12
ITEM: BOX BOUNDS
-5.979 5.979
-5.647 5.647
-5.5015 5.5015
ITEM: ATOMS id type x y z vx vy vz mol 
1 1 1.10418 0.810571 0.25184 -0.000900294 0.0028727 -0.000484842 1 
2 1 0.441471 0.173248 1.30388 0.0047772 0.000425225 -0.00301363 1 
3 1 -0.637767 -0.676226 1.05937 -0.00236366 -0.00688289 0.00287631 1 
4 1 -1.10263 -0.822295 -0.26712 -0.00193758 0.00331269 0.000334025 1 
5 1 -0.442809 -0.163743 -1.31353 -0.000173541 -0.000313828 0.00667637 1 
6 1 0.638959 0.673845 -1.04631 -0.00200175 0.0123262 0.00214965 1 
7 2 1.93134 1.44456 0.473677 0.0186725 -0.0050088 0.00145705 1 
8 2 0.755174 0.324963 2.40013 0.00260802 -0.0493644 -0.021176 1 
9 2 -1.12675 -1.13168 1.86705 0.00443023 -0.042306 -0.0392 1 
10 2 -1.91833 -1.50652 -0.405726 0.00161558 -0.0145506 -0.0115205 1 
11 2 -0.75796 -0.296741 -2.31099 -0.00747363 -0.0078171 -0.000580612 1 
12 2 1.13748 1.19441 -1.87077 0.011121 -0.020832 -0.0307062 1 
ITEM: TIMESTEP
22000
ITEM: NUMBER OF ATOMS
12
ITEM: BOX BOUNDS
-5.979 5.979
-5.647 5.647
-5.5015 5.5015
ITEM: ATOMS id type x y z vx vy vz mol 
1 1 0.0461664 1.0095 0.979217 -0.00289304 -0.00704693 0.00303913 1 
2 1 1.18585 0.300006 0.667569 -0.00170739 -0.00041124 6.32374e-05 1 
3 1 1.1572 -0.620189 -0.3672 0.00666268 0.00516252 -0.00123937 1 
4 1 -0.0311002 -0.959414 -1.02635 0.000799229 -0.000274137 -0.00333146 1 
5 1 -1.19414 -0.340869 -0.654482 0.000569988 0.00151029 0.00212608 1 
6 1 -1.16439 0.633816 0.367778 0.00180388 -0.00128966 0.0104015 1 
7 2 0.0935449 1.74199 1.81656 0.00192549 0.0252906 0.00400779 1 
8 2 2.14924 0.479122 1.24517 -0.00103274 -0.0161958 -0.0340181 1 
9 2 2.01551 -1.16905 -0.554763 -0.00710941 -0.000726245 -0.027373 1 
10 2 -0.0237676 -1.73845 -1.79393 -0.00814219 0.00821158 -0.0237915 1 
11 2 -2.1108 -0.686662 -1.06081 -0.013515 0.00982322 -0.0290539 1 
12 2 -2.08115 1.07494 0.758449 -0.0345037 0.00158603 -0.0215373 1 
ITEM: TIMESTEP
24000
ITEM: NUMBER OF ATOMS
12
ITEM: BOX BOUNDS
-5.979 5.979
-5.647 5.647
-5.5015 5.5015
ITEM: ATOMS id type x y z vx vy vz mol 
1 1 -0.386934 -1.27839 0.435508 -0.00411994 0.00471296 -0.00455869 1 
2 1 0.972696 -0.926558 0.422578 0.00184418 -0.00494328 -0.00869543 1 
3 1 1.31331 0.377461 0.042178 0.00100508 -0.0007543 0.00231293 1 
4 1 0.370233 1.29483 -0.376448 0.000387877 0.00183613 0.00072798 1 
5 1 -0.956676 0.919298 -0.433859 -0.00169407 0.00147254 0.00531877 1 
6 1 -1.32107 -0.361933 -0.0376893 0.00318459 -0.00675945 0.00112322 1 
7 2 -0.660136 -2.32575 0.658414 0.0114846 -0.011872 0.0263896 1 
8 2 1.7706 -1.68536 0.537903 -0.00584639 0.0317153 -0.0107476 1 
9 2 2.3112 0.642255 -0.0595846 -0.011786 0.0157978 0.00641448 1 
10 2 0.726676 2.23444 -0.769566 0.00418491 0.00515688 0.0226411 1 
11 2 -1.68268 1.54177 -0.803201 0.00222854 0.0132919 0.00650403 1 
12 2 -2.32737 -0.727519 -0.174811 -0.00750632 -0.00124342 -0.00626877 1 
ITEM: TIMESTEP
26000
ITEM: NUMBER OF ATOMS
12
ITEM: BOX BOUNDS
-5.979 5.979
-5.647 5.647
-5.5015 5.5015
ITEM: ATOMS id type x y z vx vy vz mol 
1 1 -1.11206 -0.778667 -0.410875 0.005595 -0.0029708 0.000617263 1 
2 1 -0.352596 -0.0522297 -1.34747 -0.00819592 0.00505045 -0.00159111 1 
3 1 0.683777 0.794613 -0.904232 -0.0019035 0.00189806 0.000589375 1 
4 1 1.08913 0.78275 0.408967 -0.00108777 -0.000527781 0.00542988 1 
5 1 0.410893 0.00839798 1.32003 0.0057088 -0.00655401 -0.00410713 1 
6 1 -0.664574 -0.79864 0.930062 0.00245151 0.000714919 -0.00540451 1 
7 2 -2.12429 -1.18376 -0.725671 -0.00794929 0.00312795 -0.00701649 1 
8 2 -0.713102 0.0439739 -2.40335 0.00407433 0.0245001 0.020639 1 
9 2 1.14143 1.42635 -1.63643 -0.00229407 0.00862334 -0.000567568 1 
10 2 1.83371 1.44659 0.806637 -0.0174264 -0.00955261 0.00361884 1 
11 2 0.566686 0.0682063 2.34919 -0.0140263 0.00494888 0.00535675 1 
12 2 -1.31684 -1.30562 1.66342 0.00702321 -0.0031814 0.0311833 1 
ITEM: TIMESTEP
28000
ITEM: NUMBER OF ATOMS
12
ITEM: BOX BOUNDS
-5.979 5.979
-5.647 5.647
-5.5015 5.5015
ITEM: ATOMS id type x y z vx vy vz mol 
1 1 -0.173065 -0.710755 -1.17797 0.00546272 0.00386692 -0.00407812 1 
2 1 -1.28264 -0.160666 -0.496797 -0.00531996 0.00391347 0.000973105 1 
3 1 -1.11925 0.49397 0.728917 0.00214835 0.00101148 0.00455268 1 
4 1 0.167081 0.687432 1.1884 0.00031431 -0.00340182 0.000512609 1 
5 1 1.27965 0.191988 0.484827 -0.00295212 0.00477648 -0.000481973 1 
6 1 1.14016 -0.480477 -0.718336 -0.0017127 0.00208597 -0.00332081 1 
7 2 -0.364197 -1.38423 -2.07087 -0.00208823 -0.0172714 0.0103382 1 
8 2 -2.28954 -0.311035 -0.900968 0.0161376 -0.0142229 0.000307124 1 
9 2 -1.98641 0.765809 1.29639 -0.0063528 -0.0379519 0.0211716 1 
10 2 0.308229 1.17517 2.10899 0.000610528 -0.0503183 0.00198338 1 
11 2 2.24903 0.347666 0.796057 0.00506406 -0.0153932 0.0147275 1 
12 2 1.97837 -0.875275 -1.32544 0.0111661 -0.0108271 -0.0265749 1 
ITEM: TIMESTEP
30000
ITEM: NUMBER OF ATOMS
12
ITEM: BOX BOUNDS
-5.979 5.979
-5.647 5.647
-5.5015 5.5015
ITEM: ATOMS id type x y z vx vy vz mol 
1 1 0.116246 1.38159 0.151092 0.000165151 -0.00248369 0.00553432 1 
2 1 -1.12533 0.780901 0.147418 -0.00887297 -0.00260232 0.00611456 1 
3 1 -1.26088 -0.60719 -0.00776855 -0.00355338 -0.00396951 0.00199797 1 
4 1 -0.132721 -1.39182 -0.143572 0.00467105 0.00246647 -0.00597571 1 
5 1 1.12544 -0.7633 -0.195398 0.00144466 0.00428093 -0.00389533 1 
6 1 1.27662 0.602665 -0.0170073 0.00480196 -0.00463402 0.00222132 1 
7 2 0.192968 2.45588 0.443423 -0.00908689 0.00331721 -0.0124541 1 
8 2 -1.98829 1.3495 0.399363 0.0250093 0.00123528 0.0252935 1 
9 2 -2.19205 -1.11438 0.0806073 -0.00372614 0.0338946 -0.0227386 1 
10 2 -0.156221 -2.40642 -0.100706 -0.0200326 0.0156343 -0.0284164 1 
11 2 1.93212 -1.3756 -0.250691 0.0125942 0.0134814 -0.0141847 1 
12 2 2.2566 1.03126 0.217177 0.0112498 0.0151505 -0.0189537 1 
ITEM: TIMESTEP
32000
ITEM: NUMBER OF ATOMS
12
ITEM: BOX BOUNDS
-5.979 5.979
-5.647 5.647
-5.5015 5.5015
ITEM: ATOMS id type x y z vx vy vz mol 
1 1 1.08488 0.597422 0.616892 -0.00178766 -0.00144516 0.000408365 1 
2 1 0.795846 -0.740652 0.84829 0.000375887 -0.00452245 -0.00280517 1 
3 1 -0.273585 -1.34154 0.229704 -0.00244208 -0.00267237 -0.0013686 1 
4 1 -1.07326 -0.628276 -0.636452 0.00361623 -0.000147114 -6.74342e-06 1 
5 1 -0.839198 0.766288 -0.806093 -0.00186597 0.000269502 0.00418616 1 
6 1 0.280561 1.35073 -0.209146 -0.00226206 0.00444883 0.00094377 1 
7 2 1.97692 1.08552 1.03524 0.00323935 0.00301073 -0.00168695 1 
8 2 1.47083 -1.39238 1.38945 0.0119534 0.0120586 -0.0125654 1 
9 2 -0.389182 -2.42901 0.275216 0.0204364 0.0182809 -0.00776215 1 
10 2 -1.7851 -1.05593 -1.24329 0.0082173 0.00175462 0.00398574 1 
11 2 -1.46479 1.32045 -1.47264 -0.0102028 0.0119729 0.00108995 1 
12 2 0.523989 2.39817 -0.48671 0.0183719 0.00140023 0.000761162 1 
ITEM: TIMESTEP
34000
ITEM: NUMBER OF ATOMS
12
ITEM: BOX BOUNDS
-5.979 5.979
-5.647 5.647
-5.5015 5.5015
ITEM: ATOMS id type x y z vx vy vz mol 
1 1 0.370118 0.475063 1.25275 0.00511625 -0.00808361 -0.00149479 1 
2 1 1.31962 0.153385 0.367524 0.000244456 2.2369e-05 -0.000970182 1 
3 1 0.986229 -0.324711 -0.919455 -0.00195933 0.000893271 1.31767e-05 1 
4 1 -0.350275 -0.478131 -1.28356 0.00147064 0.00847646 -0.000696814 1 
5 1 -1.35102 -0.184881 -0.327912 0.000112574 -0.00640051 0.00413544 1 
6 1 -0.973775 0.331364 0.926688 -0.00141269 -0.00541934 -7.24923e-05 1 
7 2 0.684474 0.953453 2.19274 -0.000265254 0.0149444 0.0109169 1 
8 2 2.39527 0.251869 0.588794 0.00456544 0.0176796 -0.00429725 1 
9 2 1.74589 -0.616654 -1.64512 -0.0124982 0.03105 0.0136303 1 
10 2 -0.626037 -0.758221 -2.22455 -0.0127613 0.0224922 -0.0112713 1 
11 2 -2.37934 -0.2166 -0.666892 -0.0137829 0.0120223 -0.00917597 1 
12 2 -1.79324 0.692875 1.57588 -0.00781589 0.0270511 -0.0106966 1 
ITEM: TIMESTEP
36000
ITEM: NUMBER OF ATOMS
12
ITEM: BOX BOUNDS
-5.979 5.979
-5.647 5.647
-5.5015 5.5015
ITEM: ATOMS id type x y z vx vy vz mol 
1 1 0.0206516 -1.37334 -0.0276646 0.00106443 0.000193875 -0.00737871 1 
2 1 1.23195 -0.668805 -0.00135053 -0.00105417 -0.00249818 -0.00876309 1 
3 1 1.21367 0.722522 0.0181665 -0.00540698 0.00232555 -0.00263905 1 
4 1 -0.0285176 1.39219 -0.00110975 0.0045285 0.00123187 0.0072299 1 
5 1 -1.24954 0.654528 0.0604399 -0.00492303 -0.00319382 -0.000420901 1 
6 1 -1.19501 -0.735678 -0.0158563 0.00580479 0.000112655 0.00267556 1 
7 2 0.052962 -2.50194 -0.0715082 0.00337816 -0.0233082 0.00395012 1 
8 2 2.23458 -1.12582 -0.0909488 0.00663397 0.00675233 0.0256367 1 
9 2 2.09247 1.2787 -0.0645286 -0.0257651 0.00573562 0.0241 1 
10 2 -0.00602042 2.43431 -0.0765895 0.0169436 0.0184422 0.0328135 1 
11 2 -2.12191 1.23776 0.0630927 0.00773836 0.0173128 0.0189899 1 
12 2 -2.13334 -1.24668 -0.136323 -0.00909034 -0.00315419 0.00527215 1 
ITEM: TIMESTEP
38000
ITEM: NUMBER OF ATOMS
12
ITEM: BOX BOUNDS
-5.979 5.979
-5.647 5.647
-5.5015 5.5015
ITEM: ATOMS id type x y z vx vy vz mol 
1 1 -0.958019 -0.68288 -0.674144 -0.00126756 0.00322323 -0.00291015 1 
2 1 -0.0565136 0.0620216 -1.42267 -0.00542391 0.00175324 -0.00059158 1 
3 1 0.906066 0.794188 -0.7166 -0.0020512 0.00193613 0.000318032 1 
4 1 0.958553 0.700945 0.692475 0.00235827 -0.000592606 0.00105422 1 
5 1 0.103464 -0.1452 1.41469 0.000543621 -0.00342375 0.00208793 1 
6 1 -0.910322 -0.780597 0.699855 0.00192512 -0.000269808 -0.00206108 1 
7 2 -1.86787 -1.12969 -1.21071 -0.0017156 -0.0106294 -0.0138225 1 
8 2 -0.196287 0.236405 -2.487 0.0247516 0.0164692 0.00253509 1 
9 2 1.56853 1.45585 -1.19073 -0.0199091 -0.000902649 0.00333126 1 
10 2 1.60415 1.35796 1.23999 -0.000839637 -0.00587426 0.0176542 1 
11 2 0.112215 -0.069887 2.44911 0.0315384 -0.00390478 -0.00137543 1 
12 2 -1.69805 -1.26261 1.28739 0.0128282 -0.0264513 0.0167295 1 
ITEM: TIMESTEP
40000
ITEM: NUMBER OF ATOMS
12
ITEM: BOX BOUNDS
-5.979 5.979
-5.647 5.647
-5.5015 5.5015
ITEM: ATOMS id type x y z vx vy vz mol 
1 1 -0.479836 -0.516478 -1.15808 -0.00373463 0.00305434 0.000592853 1 
2 1 -1.38799 -0.0486841 -0.233012 0.000521303 -0.000140253 -0.00793113 1 
3 1 -0.907966 0.490636 0.946499 0.00153102 -0.00747698 0.00453224 1 
4 1 0.486346 0.520013 1.17424 1.03896e-05 -0.00110052 0.00442275 1 
5 1 1.39449 0.100712 0.20258 0.00159587 0.00317413 -0.00459335 1 
6 1 0.894341 -0.487794 -0.94855 -0.00355346 0.00551939 -0.000969398 1 
7 2 -0.862896 -1.06789 -2.09174 0.011326 -0.0135647 0.00109994 1 
8 2 -2.48095 -0.245794 -0.345683 -0.00458239 0.00727935 0.0141141 1 
9 2 -1.54415 0.708686 1.70743 0.0209514 -0.00244064 0.0206804 1 
10 2 0.855264 0.786152 2.14936 0.00290754 -0.0210441 0.000955712 1 
11 2 2.43853 0.0361575 0.387675 -0.00388598 -0.0147762 0.0142127 1 
12 2 1.63933 -0.939013 -1.60057 0.0165278 0.0084437 -0.00404712 1 
ITEM: TIMESTEP
42000
ITEM: NUMBER OF ATOMS
12
ITEM: BOX BOUNDS
-5.979 5.979
-5.647 5.647
-5.5015 5.5015
ITEM: ATOMS id type x y z vx vy vz mol 
1 1 -0.205657 1.31797 0.383902 9.69622e-05 -0.00458271 0.00743847 1 
2 1 -1.30172 0.498256 0.202633 0.000475205 -0.00174761 0.00530073 1 
3 1 -1.07369 -0.865156 -0.0571629 -0.000697849 0.00690373 0.00198561 1 
4 1 0.221275 -1.32467 -0.369112 -0.00225162 -0.00370709 -0.0071052 1 
5 1 1.29937 -0.494217 -0.273927 0.00389306 0.00668672 0.00164036 1 
6 1 1.06267 0.851575 0.103827 -0.00307678 -0.00348092 0.00376969 1 
7 2 -0.315535 2.37388 0.759103 0.00485137 -0.00639467 -0.0202005 1 
8 2 -2.32276 0.886769 0.40395 0.00180861 -0.000895481 -0.00449521 1 
9 2 -1.85811 -1.53641 -0.095277 -0.000186178 -0.0226342 -0.0272615 1 
10 2 0.357091 -2.31672 -0.607278 0.0196722 0.0226078 -0.0361119 1 
11 2 2.27834 -0.841956 -0.460117 -0.00791641 -0.000607418 -0.0296262 1 
12 2 1.87193 1.60208 0.128765 0.000369513 0.00706463 -0.0375489 1 
ITEM: TIMESTEP
44000
ITEM: NUMBER OF ATOMS
12
ITEM: BOX BOUNDS
-5.979 5.979
-5.647 5.647
-5.5015 5.5015
ITEM: ATOMS id type x y z vx vy vz mol 
1 1 1.15136 0.324328 0.7766 0.00608329 -0.00074692 -0.00164728 1 
2 1 0.522563 -0.960077 0.863764 -0.000670302 0.00327603 -0.0028432 1 
3 1 -0.580013 -1.26471 0.076853 0.00777101 -0.00167414 -0.00583843 1 
4 1 -1.13843 -0.302573 -0.775775 -0.00734491 -0.000491308 -0.000630815 1 
5 1 -0.565626 0.961207 -0.831702 0.00314006 0.00275718 0.00592357 1 
6 1 0.562713 1.26695 -0.0685119 -0.00336878 -0.000416409 0.00579902 1 
7 2 2.14145 0.436339 1.31602 -0.0131433 -0.00780255 -0.0141654 1 
8 2 1.0252 -1.7661 1.45401 -0.019555 -0.00998814 -0.00632061 1 
9 2 -0.835329 -2.29679 -0.057876 -0.0058707 -0.014564 -0.00589887 1 
10 2 -1.87446 -0.600765 -1.41861 0.000840569 -0.00234697 0.00828405 1 
11 2 -0.909222 1.68874 -1.51329 -0.0232441 -0.00104106 0.00630332 1 
12 2 1.0553 2.21343 -0.259559 -0.00587333 0.00352034 0.00270817 1 
ITEM: TIMESTEP
46000
ITEM: NUMBER OF ATOMS
12
ITEM: BOX BOUNDS
-5.979 5.979
-5.647 5.647
-5.5015 5.5015
ITEM: ATOMS id type x y z vx vy vz mol 
1 1 0.936495 -0.352976 1.01346 0.00483102 -0.00259569 0.000585835 1 
2 1 1.33274 0.391915 -0.125624 0.000186983 -0.00639856 0.00412999 1 
3 1 0.412267 0.665451 -1.13415 -0.00317557 0.01009 -0.0028554 1 
4 1 -0.922427 0.306483 -1.0079 -0.00526354 -0.000674981 -0.000749786 1 
5 1 -1.34433 -0.344962 0.108229 0.0059695 -0.0017974 -0.000135754 1 
6 1 -0.415855 -0.685885 1.12093 0.00245845 -0.0103221 -0.00232511 1 
7 2 1.63044 -0.532574 1.85539 -0.0109331 0.0194464 -0.00990193 1 
8 2 2.40063 0.811609 -0.128525 -0.00507121 0.0139473 0.00767815 1 
9 2 0.729073 1.17709 -2.03668 -0.0211411 0.0340378 6.93037e-05 1 
10 2 -1.60984 0.580684 -1.68452 -0.00398206 0.036395 0.0117432 1 
11 2 -2.36502 -0.577992 0.300699 -0.00877019 0.0183163 -0.00399477 1 
12 2 -0.73426 -1.24664 2.00396 -0.00975718 0.0172432 0.0104935 1 
ITEM: TIMESTEP
48000
ITEM: NUMBER OF ATOMS
12
ITEM: BOX BOUNDS
-5.979 5.979
-5.647 5.647
-5.5015 5.5015
ITEM: ATOMS id type x y z vx vy vz mol 
1 1 0.117484 -0.378764 -1.35017 -0.00423324 0.00125751 -0.00399716 1 
2 1 1.11111 0.39085 -0.736748 -0.00376263 0.0056409 0.00328108 1 
3 1 0.944719 0.823846 0.56955 0.00299927 0.00100552 0.00316072 1 
4 1 -0.114308 0.35907 1.32945 0.00027482 -0.00329287 -0.00129551 1 
5 1 -1.05847 -0.458168 0.795629 0.00701542 -0.00276962 -0.00279187 1 
6 1 -0.968229 -0.791442 -0.567987 -0.00343943 0.00219802 -0.00296322 1 
7 2 0.107606 -0.522176 -2.41805 -0.0127345 -0.00150038 -0.00130449 1 
8 2 1.90224 0.845942 -1.39704 0.000970369 -0.00213167 0.00857433 1 
9 2 1.59459 1.62476 0.869295 0.0103052 -0.00860589 -0.00411655 1 
10 2 -0.283191 0.7792 2.25132 0.00879223 -0.00472441 0.0495403 1 
11 2 -1.94214 -0.715157 1.26367 0.00402391 -0.0313154 0.00558128 1 
12 2 -1.72627 -1.38777 -1.03058 0.00229458 0.000148954 -0.00339617 1 
ITEM: TIMESTEP
50000
ITEM: NUMBER OF ATOMS
12
ITEM: BOX BOUNDS
-5.979 5.979
-5.647 5.647
-5.5015 5.5015
ITEM: ATOMS id type x y z vx vy vz mol 
1 1 -1.39188 -0.0944456 -0.21583 -0.000228971 -0.000311217 -0.00339606 1 
2 1 -0.891778 0.475148 0.965513 0.00322566 0.000248278 0.00418772 1 
3 1 0.4923 0.552348 1.16213 0.00276538 -0.00262821 0.00302903 1 
4 1 1.38053 0.0998531 0.195972 -0.00606222 -0.000728128 -0.00357575 1 
5 1 0.899015 -0.488865 -0.95753 -0.000989758 0.00853953 -0.00256421 1 
6 1 -0.471569 -0.515397 -1.16865 0.000336752 0.00244488 -0.00246686 1 
7 2 -2.45679 -0.249281 -0.347834 0.00211376 -0.0138721 0.0337093 1 
8 2 -1.64635 0.799487 1.74515 -0.00784339 -0.0271186 -0.0131839 1 
9 2 0.833046 0.800129 2.13956 -0.0122454 -0.0260617 -0.00364719 1 
10 2 2.43323 0.164682 0.422247 0.0205469 -0.00838335 0.0179239 1 
11 2 1.52936 -0.914741 -1.67859 0.0113438 -0.00684303 -0.00218096 1 
12 2 -0.85273 -0.967361 -2.04949 -0.00255911 -0.00785733 0.0244041 1 
ITEM: TIMESTEP
52000
ITEM: NUMBER OF ATOMS
12
ITEM: BOX BOUNDS
-5.979 5.979
-5.647 5.647
-5.5015 5.5015
ITEM: ATOMS id type x y z vx vy vz mol 
1 1 -1.29362 0.521459 -0.241271 -0.00160599 0.00392372 0.00394145 1 
2 1 -1.08247 -0.832242 0.0631435 -0.00168868 -0.00233124 0.00193558 1 
3 1 0.176841 -1.3645 0.319687 0.00111985 -0.00223985 -0.00679729 1 
4 1 1.28508 -0.519682 0.245599 -0.000208307 0.00707661 -0.00373523 1 
5 1 1.10374 0.806976 -0.125893 -0.00238437 -0.00190461 0.00295856 1 
6 1 -0.17762 1.36883 -0.295882 0.00297984 -0.000829255 0.0117622 1 
7 2 -2.29535 0.968125 -0.410757 0.00511904 -0.0214452 -0.0155836 1 
8 2 -2.01289 -1.43643 0.164188 0.0327543 0.0114008 -0.0159641 1 
9 2 0.233523 -2.35807 0.686441 -0.00449391 -0.00608732 -0.0320926 1 
10 2 2.30891 -0.801386 0.534132 0.00556957 -0.0333925 -0.0078194 1 
11 2 1.94716 1.4286 -0.150812 0.00196695 0.0159533 -0.0208843 1 
12 2 -0.285877 2.40166 -0.398823 -0.0196164 -0.0104584 -0.0275805 1 
ITEM: TIMESTEP
54000
ITEM: NUMBER OF ATOMS
12
ITEM: BOX BOUNDS
-5.979 5.979
-5.647 5.647
-5.5015 5.5015
ITEM: ATOMS id type x y z vx vy vz mol 
1 1 -0.170626 -0.0922977 1.39709 0.00181148 -0.00341623 0.00484503 1 
2 1 -1.04869 -0.724016 0.501619 -0.000367326 -0.008323 -0.00561768 1 
3 1 -0.871676 -0.66263 -0.883348 -0.00489975 0.0037652 -0.00120126 1 
4 1 0.130355 0.0965878 -1.3912 0.000934649 0.00409278 0.00399836 1 
5 1 1.00941 0.790484 -0.510774 -0.00732067 0.00355829 -0.00216438 1 
6 1 0.903611 0.648078 0.879928 0.00469777 0.000193442 -0.000607668 1 
7 2 -0.183398 -0.259105 2.49991 0.00942354 -0.00805529 -0.0238296 1 
8 2 -1.80754 -1.37237 0.926742 0.0320675 0.0180378 0.00139955 1 
9 2 -1.38562 -1.34674 -1.56413 0.00148305 -0.00535295 0.00316252 1 
10 2 0.438926 0.00829121 -2.46243 -0.00589693 0.00836714 0.000747929 1 
11 2 1.87756 1.24392 -0.849616 0.00726404 0.021431 0.00143745 1 
12 2 1.66518 1.03049 1.5411 0.0169461 -0.0328846 0.0259896 1 
ITEM: TIMESTEP
56000
ITEM: NUMBER OF ATOMS
12
ITEM: BOX BOUNDS
-5.979 5.979
-5.647 5.647
-5.5015 5.5015
ITEM: ATOMS id type x y z vx vy vz mol 
1 1 1.38784 0.0590017 -0.0703969 0.00412053 -0.00204385 -0.000712009 1 
2 1 0.644044 -0.287864 -1.19191 -0.00550537 0.000309661 -0.00421443 1 
3 1 -0.751863 -0.354734 -1.13088 -0.00383366 0.00373878 -0.00317845 1 
4 1 -1.38114 -0.0576152 0.0627504 0.00256671 -0.00205771 -0.000148384 1 
5 1 -0.628194 0.309783 1.18878 0.00120086 -0.0115002 -0.00126355 1 
6 1 0.737724 0.354799 1.13617 -0.00115967 -0.00104116 0.00710851 1 
7 2 2.4467 0.0226324 -0.104255 -0.00858922 0.0259074 -0.0128368 1 
8 2 1.14951 -0.634745 -2.09212 0.00977624 0.0400878 0.0117475 1 
9 2 -1.3548 -0.665969 -2.03043 0.00608648 0.0120412 -0.0022263 1 
10 2 -2.46984 -0.115645 0.185117 0.0128429 0.0227474 0.000322173 1 
11 2 -1.16655 0.539427 2.06116 0.00802308 0.0150606 0.0335971 1 
12 2 1.33258 0.550006 2.05786 0.00296496 0.034215 -0.00190934 1 
ITEM: TIMESTEP
58000
ITEM: NUMBER OF ATOMS
12
ITEM: BOX BOUNDS
-5.979 5.979
-5.647 5.647
-5.5015 5.5015
ITEM: ATOMS id type x y z vx vy vz mol 
1 1 1.29617 0.0271159 -0.489047 -0.00649423 0.0020807 -0.00457727 1 
2 1 0.913515 0.939511 0.450776 0.00551719 0.00210793 0.00501261 1 
3 1 -0.382565 0.926172 0.93989 -0.00315009 -0.00473968 0.00694479 1 
4 1 -1.31087 -0.0199299 0.516324 0.00434063 -0.00489615 0.00308136 1 
5 1 -0.868859 -1.01856 -0.401764 0.00226214 0.0015824 -0.00212295 1 
6 1 0.391544 -0.900253 -0.967085 -0.00407712 0.0035421 -0.00192103 1 
7 2 2.20899 0.166167 -1.02157 -0.018136 0.00791391 -0.0117888 1 
8 2 1.47704 1.79833 0.690312 -0.00462412 -0.0149328 -0.00956968 1 
9 2 -0.773 1.78753 1.5286 0.0125029 0.00802386 -0.00076788 1 
10 2 -2.37084 0.0189216 0.768785 0.0271657 -0.000116909 -0.00498699 1 
11 2 -1.62637 -1.70018 -0.750611 -0.029121 -0.00569421 -0.0447331 1 
12 2 0.658062 -1.54912 -1.78853 0.0312937 0.00865113 -0.00461603 1 
ITEM: TIMESTEP
60000
ITEM: NUMBER OF ATOMS
12
ITEM: BOX BOUNDS
-5.979 5.979
-5.647 5.647
-5.5015 5.5015
ITEM: ATOMS id type x y z vx vy vz mol 
1 1 -0.195752 0.988859 -0.969204 0.000418297 0.00348666 0.00194373 1 
2 1 0.820907 1.12153 -0.027365 -0.000188055 0.00192744 0.000590147 1 
3 1 1.03764 0.130378 0.922273 -0.00305226 -0.00388569 -0.00242226 1 
4 1 0.200128 -0.978495 0.982843 0.00728885 -0.0018857 -0.00214477 1 
5 1 -0.797365 -1.13233 0.000686707 0.00355802 -0.000729193 -0.00700997 1 
6 1 -1.06955 -0.110074 -0.904002 0.00109983 -0.00145318 0.00378102 1 
7 2 -0.342873 1.70818 -1.72937 -0.0136522 0.0156482 0.0275327 1 
8 2 1.45705 1.94071 -0.063731 -0.00323467 0.00124411 0.0102316 1 
9 2 1.84642 0.174407 1.706 -0.0173799 0.00624158 -0.0109354 1 
10 2 0.397473 -1.75835 1.65691 -0.0237535 0.0154698 0.00619306 1 
11 2 -1.38845 -2.08253 0.00352719 -0.0290013 -0.0118546 0.00953657 1 
12 2 -1.88433 -0.244931 -1.62375 -0.0216959 0.00351018 0.0201375 1 
ITEM: TIMESTEP
62000
ITEM: NUMBER OF ATOMS
12
ITEM: BOX BOUNDS
-5.979 5.979
-5.647 5.647
-5.5015 5.5015
ITEM: ATOMS id type x y z vx vy vz mol 
1 1 -1.3221 -0.12798 0.340003 0.00188405 -0.00308413 0.00671592 1 